ITEM: TIMESTEP
0
ITEM: NUMBER OF ATOMS
1000
ITEM: BOX BOUNDS pp pp pp
0	1.00000000
0	1.00000000
0	1.00000000
ITEM: ATOMS id x y z 
1	0.08503245	0.89161128	0.18968977	
2	0.39800838	0.74351245	0.56038994	
3	0.80956668	0.51171255	0.99508452	
4	0.96661139	0.42605084	0.65299875	
5	0.96153313	0.85798734	0.29402614	
6	0.41464457	0.51489288	0.78978455	
7	0.54427278	0.09362991	0.43225953	
8	0.84492743	0.77284646	0.19185895	
9	0.78036678	0.18134318	0.57914150	
10	0.31413144	0.41198459	0.99230546	
11	0.16392241	0.33484817	0.07621820	
12	0.17452388	0.03729991	0.46741480	
13	0.67411268	0.06670325	0.38978249	
14	0.16539866	0.99080426	0.87063915	
15	0.67265260	0.58770591	0.25501439	
16	0.59304547	0.27172005	0.27048117	
17	0.09593023	0.63255632	0.15127279	
18	0.94886249	0.04260425	0.73508906	
19	0.46549705	0.22253954	0.57148421	
20	0.60456944	0.69800180	0.66468567	
21	0.17365222	0.75149453	0.82491690	
22	0.75309592	0.31904930	0.53255123	
23	0.14755413	0.79262811	0.91253102	
24	0.79438114	0.00940840	0.51005286	
25	0.29559365	0.55991894	0.50417250	
26	0.31001624	0.98257887	0.96445531	
27	0.44856361	0.30351385	0.05620841	
28	0.80191910	0.98381251	0.05106258	
29	0.23980345	0.10469949	0.53479683	
30	0.52140695	0.32997948	0.31763807	
31	0.97785842	0.73508656	0.95361674	
32	0.04946820	0.57253802	0.06084541	
33	0.81162852	0.97918642	0.22582537	
34	0.40636951	0.61904627	0.75455630	
35	0.91598821	0.03649224	0.83057600	
36	0.90364283	0.17599221	0.56678283	
37	0.32818183	0.39456925	0.46455199	
38	0.18326835	0.25749969	0.61054915	
39	0.19650379	0.14129260	0.66934407	
40	0.80183345	0.15589584	0.47142801	
41	0.25572824	0.99397773	0.69876140	
42	0.84735096	0.06938130	0.19178610	
43	0.00814663	0.43965304	0.38961315	
44	0.13565701	0.24923117	0.46139181	
45	0.69838911	0.20685668	0.18226177	
46	0.39439276	0.14246233	0.71565151	
47	0.47311959	0.36171997	0.00031000	
48	0.97210872	0.24259712	0.65427971	
49	0.94020051	0.59625697	0.90385771	
50	0.33153152	0.30404329	0.67539781	
51	0.44978455	0.40903237	0.61830515	
52	0.74450547	0.04734474	0.67603654	
53	0.01819793	0.53467482	0.93817383	
54	0.37804446	0.49231055	0.67575085	
55	0.78418821	0.89368165	0.72711867	
56	0.32151440	0.14523701	0.23718280	
57	0.21192303	0.21550331	0.57817668	
58	0.75281596	0.79023486	0.13343823	
59	0.38045493	0.37354955	0.30452219	
60	0.64479899	0.82267773	0.78278756	
61	0.52438092	0.20916010	0.63402677	
62	0.63956749	0.73894620	0.68035442	
63	0.39940605	0.00708560	0.26285183	
64	0.86390090	0.64420098	0.62437844	
65	0.62603450	0.58956653	0.96650535	
66	0.61546350	0.46827999	0.62101662	
67	0.15879408	0.14249583	0.86501044	
68	0.09678110	0.45421538	0.32574776	
69	0.51435930	0.13365018	0.06974749	
70	0.02953294	0.98354840	0.95869899	
71	0.00201616	0.37944004	0.40573868	
72	0.20097038	0.35617304	0.73464972	
73	0.62521690	0.35678816	0.11711275	
74	0.66044098	0.85267067	0.17316936	
75	0.17981543	0.63366115	0.48024043	
76	0.43129644	0.75399828	0.02893465	
77	0.08204520	0.60801947	0.65123975	
78	0.85407954	0.27669013	0.65093309	
79	0.07135098	0.14234731	0.12587531	
80	0.94573838	0.93652773	0.91846979	
81	0.11414323	0.73225296	0.73876148	
82	0.49823347	0.68834811	0.73025894	
83	0.90737557	0.88355356	0.80509740	
84	0.86696935	0.42033342	0.48059782	
85	0.77137101	0.21687761	0.01539877	
86	0.89807087	0.59320515	0.08551074	
87	0.16567819	0.28976554	0.98737723	
88	0.92516172	0.83906734	0.83156776	
89	0.18389352	0.65712976	0.22219789	
90	0.38935888	0.70086122	0.05465717	
91	0.86048269	0.67577648	0.67083806	
92	0.01059742	0.04595543	0.66336793	
93	0.94081825	0.30663583	0.95185071	
94	0.10865784	0.93338412	0.37446153	
95	0.14880091	0.24332777	0.39344606	
96	0.15643911	0.38429207	0.97530031	
97	0.82604128	0.31911635	0.18483850	
98	0.47211763	0.84349382	0.34432924	
99	0.66525191	0.43440664	0.39332029	
100	0.76263934	0.79380214	0.94110501	
101	0.51657653	0.96323222	0.19377904	
102	0.32954258	0.54067165	0.89980119	
103	0.20156153	0.47899786	0.80322319	
104	0.82357985	0.28923899	0.94680619	
105	0.13805990	0.71716571	0.76696110	
106	0.21982485	0.16128467	0.11170732	
107	0.88883644	0.65170395	0.92042410	
108	0.92923963	0.48556221	0.56896400	
109	0.14643015	0.73889744	0.89182580	
110	0.38391283	0.03852315	0.25232348	
111	0.83080244	0.76544881	0.47051749	
112	0.92353451	0.40452665	0.89201522	
113	0.60808867	0.29964268	0.41236037	
114	0.71282321	0.60779512	0.47970855	
115	0.30324170	0.16104691	0.45814222	
116	0.27915049	0.86451972	0.43940756	
117	0.72797638	0.82777464	0.02625050	
118	0.20528232	0.57365459	0.16327779	
119	0.40530413	0.23569520	0.48524618	
120	0.63748258	0.71968812	0.53400666	
121	0.09121638	0.63273227	0.65523189	
122	0.08136543	0.15372735	0.61735398	
123	0.53547782	0.23360664	0.43067822	
124	0.29360679	0.93237370	0.62965506	
125	0.52762777	0.70224082	0.49433053	
126	0.91997588	0.73794782	0.96319014	
127	0.83173931	0.11776859	0.55226898	
128	0.65786141	0.90346622	0.76585513	
129	0.97956926	0.50073826	0.43965974	
130	0.87727022	0.03738223	0.05822273	
131	0.55828238	0.19984058	0.54650354	
132	0.65686834	0.19570303	0.30096668	
133	0.51861477	0.71764654	0.37936848	
134	0.61547941	0.28563946	0.74745810	
135	0.51194739	0.57675111	0.97093135	
136	0.96347475	0.72582400	0.02832299	
137	0.76964092	0.71302319	0.48028919	
138	0.26407871	0.26243210	0.63463235	
139	0.93838060	0.54033154	0.64102352	
140	0.38790745	0.20980136	0.94902837	
141	0.91377980	0.35055313	0.27554190	
142	0.03913306	0.64878976	0.69056904	
143	0.96261978	0.68325555	0.86688572	
144	0.84756458	0.77006894	0.05742034	
145	0.10438442	0.40964147	0.54811525	
146	0.85098231	0.04617410	0.96612877	
147	0.78880876	0.53689790	0.31285095	
148	0.37725902	0.87943166	0.96959215	
149	0.73473525	0.00109210	0.45677561	
150	0.93850744	0.40334252	0.34650415	
151	0.24261090	0.76444983	0.71788913	
152	0.51660532	0.97206420	0.86497229	
153	0.24202214	0.75266731	0.02422049	
154	0.96080476	0.64853567	0.58849329	
155	0.27966642	0.44073698	0.86356121	
156	0.76842695	0.27125651	0.05911108	
157	0.21661073	0.70795095	0.29328579	
158	0.45303747	0.13002278	0.84838301	
159	0.25171006	0.28966957	0.15665306	
160	0.01246696	0.72754955	0.37729093	
161	0.10891779	0.59746951	0.53766328	
162	0.67012745	0.46586528	0.34926325	
163	0.62612242	0.77713299	0.27362317	
164	0.87321609	0.78027165	0.53831357	
165	0.95129740	0.47102800	0.61662197	
166	0.88246852	0.47755471	0.05982301	
167	0.18190558	0.19985414	0.96690935	
168	0.75142592	0.80720520	0.27535650	
169	0.75389004	0.67820799	0.10381078	
170	0.36070386	0.07394257	0.96951842	
171	0.50280869	0.69465214	0.23806711	
172	0.42459875	0.17767827	0.69812238	
173	0.17443566	0.08536132	0.86836457	
174	0.17156632	0.14370386	0.59555197	
175	0.82010818	0.35098013	0.62663364	
176	0.82149005	0.49738285	0.16859508	
177	0.08525931	0.17024989	0.15487787	
178	0.84042627	0.26608607	0.44355085	
179	0.69562304	0.81297374	0.13995947	
180	0.24682692	0.08308925	0.94727653	
181	0.18718156	0.48118091	0.28185216	
182	0.66201937	0.89001602	0.34515440	
183	0.35211360	0.00567196	0.24007246	
184	0.90501803	0.21217154	0.07786485	
185	0.00969241	0.82117486	0.71281719	
186	0.62803304	0.59622830	0.47635335	
187	0.52453732	0.38106924	0.07503781	
188	0.31029332	0.92582512	0.31426471	
189	0.74318314	0.63274503	0.01375432	
190	0.18135430	0.23905949	0.88303930	
191	0.39342558	0.83062375	0.98477739	
192	0.00672626	0.33746433	0.38199615	
193	0.65138835	0.11337406	0.19392592	
194	0.32929447	0.76196265	0.76104313	
195	0.62927115	0.99782223	0.83012313	
196	0.43211320	0.03379002	0.56897515	
197	0.06144549	0.98263907	0.44233611	
198	0.41625628	0.08991548	0.60537136	
199	0.52074856	0.50805879	0.06985956	
200	0.46932790	0.20249236	0.11360261	
201	0.86486816	0.46924919	0.93290567	
202	0.08394007	0.30994436	0.69346946	
203	0.71483576	0.41786632	0.54464626	
204	0.52609074	0.52946496	0.79868442	
205	0.00771932	0.02831305	0.24181928	
206	0.92064631	0.41397092	0.38698253	
207	0.52807951	0.74927288	0.88076717	
208	0.96561772	0.59084129	0.26869652	
209	0.59858191	0.77321559	0.22036582	
210	0.46287650	0.52323228	0.96273398	
211	0.17036960	0.00102755	0.19403228	
212	0.59100330	0.69375944	0.80182600	
213	0.72521687	0.67687607	0.49364954	
214	0.55138087	0.29796416	0.83056122	
215	0.76286334	0.25216463	0.88149101	
216	0.19372270	0.97803396	0.11808914	
217	0.48896137	0.19654897	0.75480056	
218	0.81994742	0.21070397	0.51179320	
219	0.74108744	0.33008274	0.43677542	
220	0.65604240	0.90594929	0.40331972	
221	0.47753450	0.82159507	0.03570307	
222	0.04313643	0.19887882	0.79805446	
223	0.00509617	0.70173895	0.45252571	
224	0.99899817	0.10388025	0.60688889	
225	0.23520327	0.35564652	0.56826746	
226	0.54783314	0.49264222	0.10229634	
227	0.10856102	0.34707740	0.82351243	
228	0.88647914	0.70739019	0.18072331	
229	0.84878272	0.23881583	0.88873291	
230	0.76819444	0.95030773	0.51358312	
231	0.42485151	0.26396415	0.34458587	
232	0.45274776	0.16792388	0.09874532	
233	0.39931038	0.30125275	0.90786994	
234	0.03221326	0.16906610	0.32253551	
235	0.08540029	0.16939034	0.92706883	
236	0.36729547	0.29565158	0.55581361	
237	0.54837000	0.16507690	0.67386800	
238	0.06912671	0.50628769	0.96557784	
239	0.81666952	0.43764883	0.23869428	
240	0.54879260	0.60942972	0.74668610	
241	0.56808186	0.31772843	0.16409552	
242	0.63762254	0.21880329	0.20906164	
243	0.26755804	0.76019609	0.26762423	
244	0.61264712	0.46099281	0.87557358	
245	0.96532327	0.70948380	0.03129365	
246	0.75184262	0.90039206	0.04981948	
247	0.90597123	0.61865377	0.75697267	
248	0.78092420	0.50929832	0.83386302	
249	0.74828809	0.77098811	0.88079649	
250	0.88410252	0.81101513	0.98207724	
251	0.17682795	0.46985066	0.77610147	
252	0.92286462	0.62124187	0.41213807	
253	0.52095318	0.55189383	0.78884327	
254	0.13855354	0.44643781	0.09856606	
255	0.96755832	0.05758473	0.17454861	
256	0.13106331	0.64167559	0.37417164	
257	0.06830052	0.25823262	0.19917060	
258	0.79055798	0.06486645	0.55400622	
259	0.91653001	0.92707664	0.19140273	
260	0.83354557	0.27390760	0.35302314	
261	0.38186413	0.29218596	0.88276833	
262	0.90237224	0.54327703	0.95600396	
263	0.45792556	0.72134280	0.53596723	
264	0.34113133	0.97715437	0.32837689	
265	0.04196381	0.27112713	0.00396024	
266	0.20516856	0.33678311	0.01084617	
267	0.84970379	0.35857859	0.80251193	
268	0.22345422	0.92023349	0.32134500	
269	0.86734784	0.00931581	0.40276781	
270	0.63442618	0.07661969	0.32224029	
271	0.06361680	0.36806291	0.30242413	
272	0.98943669	0.70675558	0.15295973	
273	0.57721233	0.75800860	0.92303509	
274	0.46333945	0.06313239	0.36284140	
275	0.67144656	0.20429446	0.48094425	
276	0.32525641	0.95428264	0.04697054	
277	0.94003463	0.76238531	0.59279436	
278	0.98946041	0.74604535	0.38747633	
279	0.15146983	0.62364674	0.93132651	
280	0.70227486	0.58068144	0.98049325	
281	0.07678309	0.01819045	0.97818464	
282	0.85333991	0.87372142	0.09950400	
283	0.68714231	0.75765026	0.34799737	
284	0.99468338	0.31774506	0.73402262	
285	0.17433290	0.86938697	0.41690576	
286	0.86365038	0.45857364	0.03721112	
287	0.28955781	0.75324208	0.36535463	
288	0.57820559	0.80196673	0.99381417	
289	0.36726525	0.15911807	0.93492842	
290	0.26776263	0.25653258	0.33253959	
291	0.67576039	0.05829236	0.61007828	
292	0.91798890	0.96118701	0.87107003	
293	0.17745569	0.80304831	0.92460793	
294	0.97853404	0.42097065	0.34647191	
295	0.40537792	0.11706728	0.94243109	
296	0.84368980	0.76074594	0.62087673	
297	0.51301831	0.61153901	0.43894014	
298	0.25747308	0.92452306	0.81467766	
299	0.26572368	0.38555658	0.37663087	
300	0.97277606	0.87799567	0.32113594	
301	0.14800687	0.46202177	0.59211558	
302	0.84821415	0.42100757	0.84832615	
303	0.73197633	0.54900271	0.29126200	
304	0.15357313	0.14568436	0.25467962	
305	0.82652438	0.02263658	0.12234707	
306	0.19396470	0.29760015	0.00584454	
307	0.62624419	0.31008258	0.27664670	
308	0.35466111	0.62042838	0.29484725	
309	0.06757623	0.48748383	0.85103321	
310	0.11325487	0.77804846	0.15714660	
311	0.62982738	0.14595252	0.72110301	
312	0.22943117	0.29215860	0.41683543	
313	0.22240196	0.92483908	0.53531539	
314	0.51057255	0.65851331	0.82902223	
315	0.39263287	0.69114882	0.44336101	
316	0.52055556	0.73791844	0.39525980	
317	0.46082056	0.41688910	0.44687372	
318	0.10002051	0.57431042	0.39523557	
319	0.77693999	0.72475117	0.66331947	
320	0.95744056	0.98174566	0.78063655	
321	0.26133853	0.62151808	0.49785486	
322	0.73583162	0.31432307	0.15591042	
323	0.34760538	0.95448112	0.31887224	
324	0.72944587	0.68328309	0.24037641	
325	0.58109909	0.79844862	0.50735509	
326	0.79105622	0.34337324	0.55735505	
327	0.83223867	0.42989966	0.92974216	
328	0.19188723	0.78061384	0.03486464	
329	0.16270724	0.58744538	0.00101656	
330	0.74797291	0.43197414	0.49762619	
331	0.61979765	0.88326120	0.99144840	
332	0.24409972	0.04143551	0.34195730	
333	0.06950404	0.55492604	0.25822580	
334	0.00784963	0.82862175	0.60870582	
335	0.18887602	0.89725399	0.96331888	
336	0.56249976	0.40498373	0.42782894	
337	0.46482599	0.38176623	0.92387742	
338	0.53825879	0.50622195	0.53343427	
339	0.38823372	0.34496924	0.47419843	
340	0.15551212	0.94765234	0.83958137	
341	0.63850772	0.42871931	0.97352934	
342	0.00026123	0.26861256	0.11871520	
343	0.87540704	0.32768053	0.30667096	
344	0.58549553	0.98723722	0.11325591	
345	0.48544249	0.34190577	0.82770836	
346	0.10266656	0.49738234	0.45936123	
347	0.43536201	0.04754062	0.25602832	
348	0.43478987	0.05471170	0.35073170	
349	0.83887988	0.99877566	0.36497155	
350	0.76320380	0.16943264	0.52984637	
351	0.01053884	0.28359360	0.83182168	
352	0.45000431	0.66733479	0.13734870	
353	0.57255638	0.97187269	0.84162486	
354	0.55199856	0.80097419	0.79093099	
355	0.69263631	0.82689309	0.30414575	
356	0.98427427	0.71396369	0.53821367	
357	0.25972304	0.97086680	0.95235389	
358	0.95888370	0.80322850	0.12538216	
359	0.37125173	0.41221178	0.51817173	
360	0.88283533	0.71475971	0.23453774	
361	0.36371410	0.79045719	0.32183343	
362	0.34208626	0.97983414	0.17560457	
363	0.30449334	0.52058047	0.14401248	
364	0.38180590	0.24299280	0.66167384	
365	0.85005546	0.08196522	0.00939233	
366	0.04023291	0.79042178	0.36589321	
367	0.23469619	0.69531393	0.92615271	
368	0.81925184	0.24836813	0.93576580	
369	0.29807204	0.78785962	0.99775571	
370	0.54346496	0.09673192	0.26229376	
371	0.15038712	0.56724650	0.86578214	
372	0.46325395	0.80959350	0.45886588	
373	0.50771540	0.11799688	0.52000725	
374	0.60388970	0.65844727	0.80604631	
375	0.54975718	0.81763572	0.15747993	
376	0.79228127	0.30580708	0.74636370	
377	0.01178755	0.68360025	0.69181252	
378	0.93802786	0.39893720	0.00063303	
379	0.55691731	0.52744788	0.50054669	
380	0.36904374	0.46632057	0.59518021	
381	0.67105424	0.74332476	0.85085410	
382	0.91922569	0.73786438	0.56999099	
383	0.45467386	0.57452548	0.14554207	
384	0.88919485	0.16858846	0.51905966	
385	0.69916880	0.09415091	0.94720495	
386	0.72361249	0.62149972	0.32478046	
387	0.84246147	0.00328016	0.79952490	
388	0.62267697	0.87637460	0.91710091	
389	0.90713060	0.28819489	0.31862280	
390	0.71715355	0.13760191	0.60278410	
391	0.24373198	0.53543830	0.95133519	
392	0.74537927	0.18654004	0.65690446	
393	0.39054126	0.37468797	0.87784594	
394	0.05903118	0.83879197	0.69536275	
395	0.18409720	0.78574204	0.80251467	
396	0.78214318	0.94794637	0.57959306	
397	0.57941687	0.03513899	0.37024993	
398	0.93777937	0.48884708	0.98190671	
399	0.76684242	0.46545267	0.05182352	
400	0.38056535	0.03318251	0.19504377	
401	0.59070241	0.15376006	0.14690627	
402	0.22769235	0.94007742	0.51994836	
403	0.04332673	0.32483783	0.68704551	
404	0.33445862	0.39173090	0.94257975	
405	0.99061275	0.89849520	0.66410959	
406	0.44230947	0.45474344	0.33392015	
407	0.88445586	0.26683518	0.93016940	
408	0.48089087	0.73239577	0.59221172	
409	0.34136355	0.12895812	0.82325137	
410	0.91675764	0.89016491	0.28031376	
411	0.57540053	0.65455657	0.85007775	
412	0.60222024	0.04629127	0.68130678	
413	0.93445921	0.17418256	0.16357040	
414	0.41543734	0.79709357	0.22654818	
415	0.96438432	0.12588045	0.87404180	
416	0.10824920	0.47293031	0.92276561	
417	0.59674275	0.56434995	0.73321861	
418	0.01835563	0.45383686	0.23004557	
419	0.33679160	0.21703711	0.11556083	
420	0.31653151	0.11733628	0.27680865	
421	0.66433746	0.81620049	0.75834638	
422	0.45469400	0.09518991	0.85445368	
423	0.06042060	0.49395633	0.73494744	
424	0.23047350	0.71200281	0.82327759	
425	0.79114300	0.25913256	0.42058000	
426	0.09430136	0.65603644	0.95306635	
427	0.54143018	0.86487776	0.56286377	
428	0.58326983	0.64168853	0.27278295	
429	0.76753324	0.54930866	0.53875643	
430	0.38179570	0.24320024	0.55659914	
431	0.57598650	0.04648202	0.41802758	
432	0.07094095	0.32944870	0.16551432	
433	0.75529540	0.03836017	0.49035040	
434	0.12510501	0.67313808	0.32071084	
435	0.77008647	0.85234588	0.23034607	
436	0.79661328	0.67346913	0.20159756	
437	0.90552908	0.62445754	0.62222946	
438	0.74047625	0.06704211	0.75812155	
439	0.36656019	0.80683154	0.76874787	
440	0.91416782	0.01971051	0.33728066	
441	0.35282087	0.28248131	0.25915447	
442	0.56130630	0.76493818	0.67941797	
443	0.90947050	0.75338864	0.83891726	
444	0.57733274	0.79578769	0.52204633	
445	0.37245882	0.25139481	0.89643717	
446	0.86401671	0.08849174	0.05870515	
447	0.73004335	0.32549888	0.92538941	
448	0.58088726	0.45577568	0.74007225	
449	0.80874336	0.22318442	0.05455671	
450	0.55513161	0.70013916	0.32729265	
451	0.46698871	0.87424964	0.06296277	
452	0.69801372	0.02249292	0.37707835	
453	0.13948847	0.71019971	0.00016441	
454	0.72655952	0.06070676	0.25022051	
455	0.63755000	0.99316186	0.38887075	
456	0.22172797	0.25729981	0.54065108	
457	0.74103582	0.35728395	0.03642970	
458	0.80259115	0.72590905	0.46025640	
459	0.24423258	0.11891655	0.90641665	
460	0.04388789	0.16400862	0.41254750	
461	0.77127850	0.71825933	0.10630560	
462	0.84971583	0.38622078	0.85601830	
463	0.87522417	0.10876616	0.35176879	
464	0.77295732	0.16290267	0.75060457	
465	0.74694568	0.18234362	0.39830321	
466	0.57274663	0.38374311	0.38759506	
467	0.98044980	0.34190920	0.59841609	
468	0.07511991	0.61610979	0.88558483	
469	0.81072742	0.02002886	0.62146211	
470	0.31850618	0.59188801	0.67382228	
471	0.28391880	0.94332999	0.01757539	
472	0.31328511	0.25540674	0.36333087	
473	0.48611006	0.90525156	0.24746414	
474	0.99669188	0.16849403	0.80908722	
475	0.54762608	0.18159953	0.60226518	
476	0.75571626	0.87261587	0.01796875	
477	0.79443949	0.74882585	0.28056291	
478	0.88796377	0.10058128	0.15628882	
479	0.95048732	0.25373104	0.52025026	
480	0.76361096	0.20978369	0.05261584	
481	0.15742606	0.81340212	0.25521863	
482	0.48510998	0.41140017	0.44564506	
483	0.98295540	0.21974723	0.93227202	
484	0.64470911	0.12139116	0.83746028	
485	0.34285381	0.41130897	0.20099950	
486	0.18012065	0.51297140	0.35757986	
487	0.62727630	0.72016954	0.16148874	
488	0.62679815	0.02395530	0.83134204	
489	0.94235408	0.16033597	0.48267791	
490	0.53471559	0.40328509	0.65507048	
491	0.08958964	0.35992688	0.71150827	
492	0.02215743	0.04844394	0.96269405	
493	0.92029208	0.89672744	0.31060621	
494	0.92905366	0.76355714	0.09466863	
495	0.42893553	0.90018588	0.38198772	
496	0.26470783	0.78148454	0.60285127	
497	0.33763605	0.05683903	0.91113919	
498	0.66418046	0.23486848	0.70149702	
499	0.09867056	0.03482753	0.35199726	
500	0.54283160	0.57154858	0.44956023	
501	0.64227402	0.82618839	0.30103382	
502	0.06849512	0.67924887	0.81764078	
503	0.18124050	0.13842393	0.30369952	
504	0.83381170	0.78453410	0.05459872	
505	0.58746618	0.62827796	0.81067842	
506	0.99771219	0.36303946	0.51956588	
507	0.13450292	0.14701436	0.93939817	
508	0.05037682	0.03350739	0.97429198	
509	0.51293743	0.67252690	0.23121001	
510	0.96892512	0.02682396	0.22085088	
511	0.70398110	0.89255565	0.96921360	
512	0.18004182	0.15533735	0.20832060	
513	0.02928905	0.23830953	0.55233085	
514	0.98402220	0.48612720	0.75925022	
515	0.97601539	0.82153600	0.28514576	
516	0.09325369	0.65542835	0.99617231	
517	0.57735628	0.88674086	0.30432799	
518	0.98422009	0.53558540	0.32111102	
519	0.78269160	0.87414634	0.36249784	
520	0.15563072	0.86212468	0.31573969	
521	0.72649413	0.18510661	0.15980935	
522	0.71110380	0.79952753	0.18877566	
523	0.95891196	0.57571745	0.19194508	
524	0.83118689	0.85481274	0.90864533	
525	0.00535883	0.16964592	0.90174878	
526	0.32510698	0.33722863	0.06166155	
527	0.61387944	0.61684269	0.52193481	
528	0.99199224	0.66531867	0.64553708	
529	0.38733116	0.13577382	0.72413129	
530	0.04185741	0.56734151	0.00904173	
531	0.02424033	0.76830053	0.74699545	
532	0.32122195	0.42704511	0.78873438	
533	0.27645707	0.35568842	0.78456652	
534	0.63627440	0.69373041	0.60345966	
535	0.30403486	0.57115382	0.68060416	
536	0.83246577	0.18398407	0.30189815	
537	0.92663646	0.75518024	0.82995248	
538	0.79436952	0.24243349	0.72106659	
539	0.68843323	0.19602133	0.59209788	
540	0.67284000	0.19621471	0.38124779	
541	0.44792148	0.78737807	0.98635012	
542	0.81478202	0.54082167	0.63387686	
543	0.82347429	0.45340756	0.36962855	
544	0.74306417	0.99166441	0.41634881	
545	0.54775500	0.11579388	0.01654903	
546	0.16284181	0.45505315	0.31042367	
547	0.95389205	0.46810979	0.13504343	
548	0.94674110	0.78864902	0.84891844	
549	0.70793587	0.92566800	0.47482041	
550	0.78351450	0.85427862	0.45129490	
551	0.80078495	0.62398845	0.56896824	
552	0.17990020	0.47128728	0.44612220	
553	0.97177559	0.36513478	0.41883516	
554	0.55161434	0.69377595	0.01516871	
555	0.95670128	0.60821122	0.61249906	
556	0.71352804	0.93713731	0.58485293	
557	0.75839269	0.29923031	0.29101545	
558	0.70645958	0.94997150	0.81328970	
559	0.80290395	0.48793977	0.61179489	
560	0.36497164	0.89550489	0.78196996	
561	0.21004501	0.56242621	0.57389516	
562	0.91955554	0.60250127	0.80265915	
563	0.03137198	0.06011305	0.83330888	
564	0.76633835	0.89694816	0.84812552	
565	0.94681454	0.98766649	0.67779678	
566	0.00566544	0.44565466	0.78069389	
567	0.79660690	0.36839667	0.86132121	
568	0.12061873	0.54140514	0.60544425	
569	0.43221951	0.05082621	0.10874801	
570	0.78690118	0.76537693	0.05559688	
571	0.38363305	0.63158506	0.18293789	
572	0.49015972	0.01744035	0.98806596	
573	0.87666619	0.51919103	0.45154426	
574	0.03782050	0.72864270	0.47681752	
575	0.03990845	0.28528044	0.21897374	
576	0.86765468	0.62453443	0.11558897	
577	0.40227100	0.72875357	0.28127125	
578	0.32119367	0.55608416	0.31976485	
579	0.51971632	0.32618997	0.83826059	
580	0.55202854	0.61521232	0.18300547	
581	0.86859536	0.59696651	0.35333747	
582	0.68980885	0.66293287	0.15092263	
583	0.77833962	0.24347216	0.23488708	
584	0.28189930	0.11246268	0.64020860	
585	0.24486205	0.30340913	0.89787686	
586	0.15992442	0.71909243	0.59642518	
587	0.39325529	0.44358259	0.04141561	
588	0.18089214	0.89380378	0.95632249	
589	0.32992440	0.87348258	0.77283382	
590	0.96911246	0.38718522	0.86079043	
591	0.15894927	0.80140007	0.56437474	
592	0.54107058	0.53563732	0.05480706	
593	0.38069975	0.88781065	0.85994005	
594	0.92071283	0.98654044	0.37934291	
595	0.39866450	0.01880399	0.69239730	
596	0.47334370	0.56452519	0.39957762	
597	0.84897846	0.07783982	0.94071317	
598	0.17308845	0.83603042	0.66720992	
599	0.51952088	0.31965607	0.36475867	
600	0.38992158	0.25601086	0.78259003	
601	0.82409734	0.89770073	0.14623059	
602	0.10320637	0.57837051	0.10847396	
603	0.31986636	0.91337001	0.45170218	
604	0.69100058	0.19658616	0.38154608	
605	0.70425874	0.92246950	0.83976609	
606	0.82410353	0.23404717	0.33493674	
607	0.64934325	0.30387467	0.61949211	
608	0.58318347	0.48289162	0.64666593	
609	0.34989581	0.36143425	0.87519699	
610	0.01633211	0.58208978	0.06546443	
611	0.31370363	0.10443138	0.80632639	
612	0.25512636	0.32222670	0.24191304	
613	0.60905421	0.10333110	0.09471135	
614	0.73098218	0.77680117	0.47010392	
615	0.54428202	0.33135009	0.57682455	
616	0.03023800	0.12499128	0.94298637	
617	0.42367691	0.26804399	0.06967386	
618	0.95377171	0.08325111	0.78104717	
619	0.10970123	0.42114156	0.23144329	
620	0.95045924	0.90246952	0.95118922	
621	0.93633687	0.47808507	0.91745049	
622	0.92981774	0.46857792	0.64055085	
623	0.82297069	0.31216028	0.11940328	
624	0.64872164	0.27319446	0.44956112	
625	0.69025779	0.44367719	0.48888096	
626	0.60277659	0.83691728	0.53449166	
627	0.55011445	0.37248883	0.76280701	
628	0.02646725	0.74919045	0.52512717	
629	0.92323112	0.98170310	0.51543385	
630	0.82283938	0.77016860	0.49134237	
631	0.56801087	0.88267368	0.95513690	
632	0.05453487	0.12849393	0.37252328	
633	0.20482239	0.65964150	0.34486011	
634	0.69805431	0.68894315	0.28575671	
635	0.87737364	0.83284432	0.90874243	
636	0.93087542	0.55447102	0.46041545	
637	0.48201039	0.70932269	0.12015552	
638	0.02281438	0.63724130	0.66983396	
639	0.59472769	0.55866396	0.26804939	
640	0.19446146	0.06402194	0.00011571	
641	0.77793074	0.67851639	0.92481363	
642	0.72628826	0.23044354	0.12899779	
643	0.31243163	0.82339531	0.61337793	
644	0.62486148	0.68358409	0.47060010	
645	0.78543442	0.83602643	0.32350424	
646	0.47026208	0.07420585	0.87071252	
647	0.36147538	0.06691657	0.41460532	
648	0.72498173	0.11651880	0.92123395	
649	0.75264835	0.97230726	0.50059927	
650	0.06661102	0.52277535	0.06941602	
651	0.27583730	0.73724133	0.62245291	
652	0.51694411	0.24540608	0.75799716	
653	0.84582454	0.35748425	0.76481819	
654	0.09276042	0.05753737	0.54453564	
655	0.04740731	0.57126039	0.71710980	
656	0.33900487	0.72330284	0.88966888	
657	0.64736819	0.95651400	0.11161406	
658	0.39946768	0.26257342	0.19726595	
659	0.23713617	0.40259561	0.82866210	
660	0.80318511	0.78485650	0.42738849	
661	0.92757648	0.61406559	0.52536714	
662	0.51823354	0.04935583	0.79700804	
663	0.10229543	0.44496071	0.78897434	
664	0.03155968	0.79003829	0.42298517	
665	0.81646383	0.09814236	0.28221244	
666	0.52301902	0.20992300	0.89068568	
667	0.63607889	0.81995749	0.60877955	
668	0.05333361	0.74937361	0.97782958	
669	0.12106271	0.62461919	0.78662515	
670	0.67920017	0.97443390	0.38999674	
671	0.27898407	0.56654680	0.73675531	
672	0.80973023	0.66966891	0.80582494	
673	0.63710397	0.26045176	0.86267310	
674	0.28619334	0.00233954	0.39845568	
675	0.83260214	0.55580717	0.69927388	
676	0.26500216	0.36742589	0.63303423	
677	0.29395854	0.16896997	0.41418859	
678	0.33591875	0.26855132	0.64752895	
679	0.06597611	0.24430922	0.94985086	
680	0.77295560	0.84219187	0.95665383	
681	0.10099450	0.59113955	0.53198349	
682	0.92221332	0.79579306	0.81689882	
683	0.26593158	0.54763895	0.68933755	
684	0.91985679	0.71294361	0.17268343	
685	0.03345276	0.54219621	0.21985455	
686	0.32004735	0.89706600	0.37054944	
687	0.27848440	0.81325895	0.02872945	
688	0.59797317	0.29105219	0.76669705	
689	0.07973273	0.33628678	0.66473192	
690	0.62036544	0.37713897	0.17391266	
691	0.01591703	0.95279938	0.84658396	
692	0.97272158	0.17342813	0.88186938	
693	0.80355442	0.46582380	0.48862863	
694	0.11033799	0.83287919	0.89038670	
695	0.29700896	0.12467749	0.72170919	
696	0.57367313	0.34933186	0.94318515	
697	0.42264685	0.04498697	0.76739156	
698	0.95376599	0.76243931	0.59855270	
699	0.06163963	0.22153069	0.36564201	
700	0.01406471	0.13516864	0.27773765	
701	0.65200120	0.89452958	0.33762833	
702	0.08954611	0.61161339	0.78093857	
703	0.01197688	0.62232465	0.16223752	
704	0.23018311	0.41554877	0.93288749	
705	0.42060038	0.89995730	0.28935811	
706	0.76096672	0.74667341	0.58351821	
707	0.99431533	0.22091553	0.92896056	
708	0.06937459	0.97961575	0.48059058	
709	0.47600806	0.26284844	0.78689235	
710	0.31543323	0.13028502	0.57276714	
711	0.97462058	0.87846899	0.54062819	
712	0.91979468	0.52347875	0.02939889	
713	0.26725125	0.36231098	0.05895169	
714	0.71469074	0.75875467	0.95035672	
715	0.35587016	0.48352617	0.66098988	
716	0.11067080	0.73512566	0.65200561	
717	0.50886726	0.06793270	0.40214092	
718	0.82557797	0.68513900	0.20916352	
719	0.22123002	0.31800291	0.37117824	
720	0.12167204	0.47542670	0.45746160	
721	0.19508706	0.48266152	0.71224612	
722	0.55344182	0.05758402	0.01025836	
723	0.77353346	0.50291216	0.79942995	
724	0.67288661	0.02593152	0.46742433	
725	0.49919033	0.53143817	0.27134585	
726	0.74532294	0.02201083	0.62260991	
727	0.55077749	0.64818710	0.50790817	
728	0.25954103	0.60948193	0.13238266	
729	0.67853588	0.94105804	0.51122493	
730	0.50414681	0.28759044	0.15885577	
731	0.88083917	0.26121694	0.16271628	
732	0.23734814	0.95912713	0.00582359	
733	0.57080561	0.56133527	0.90908611	
734	0.19113398	0.35552239	0.82534361	
735	0.90121365	0.84062213	0.08078583	
736	0.83564132	0.50845194	0.64345610	
737	0.90918279	0.70978272	0.48621008	
738	0.32087919	0.50717163	0.58440632	
739	0.13641916	0.92338741	0.83085692	
740	0.86134964	0.15770976	0.83304274	
741	0.42577675	0.97859514	0.02190297	
742	0.40673926	0.54678136	0.70323670	
743	0.80503631	0.90551782	0.09428561	
744	0.30415806	0.81706738	0.45807317	
745	0.98733193	0.61146474	0.72252297	
746	0.86010891	0.85336226	0.92456055	
747	0.18540592	0.74263203	0.06583863	
748	0.53951085	0.01057632	0.61006820	
749	0.81578940	0.49315110	0.98440772	
750	0.27593532	0.19359724	0.08655919	
751	0.95615780	0.96132910	0.71685535	
752	0.93548310	0.37715864	0.04998632	
753	0.26720729	0.91472834	0.89501005	
754	0.60433602	0.32906923	0.50166893	
755	0.19404587	0.77322626	0.71854854	
756	0.03595535	0.98807645	0.54884863	
757	0.83604699	0.61155576	0.69909155	
758	0.34359902	0.11516003	0.10187227	
759	0.56732076	0.30671260	0.48644894	
760	0.03540775	0.37885717	0.43534639	
761	0.35507247	0.68729973	0.36146665	
762	0.59959841	0.01794359	0.49121225	
763	0.99152547	0.34219116	0.49475002	
764	0.12282515	0.28846195	0.06421250	
765	0.42450583	0.10212719	0.75166923	
766	0.68357003	0.53141475	0.52353740	
767	0.75747180	0.02238230	0.23852472	
768	0.74772900	0.38738421	0.92348355	
769	0.39559910	0.95011610	0.21520896	
770	0.22694330	0.69813156	0.12670439	
771	0.43923178	0.18579347	0.65830195	
772	0.98473942	0.09335413	0.89961123	
773	0.87380362	0.09206986	0.10204758	
774	0.70958549	0.41058782	0.63399035	
775	0.18360202	0.53442019	0.04530664	
776	0.24785246	0.02197368	0.66917419	
777	0.61081648	0.28477830	0.77679086	
778	0.01479501	0.86529016	0.81001997	
779	0.87991536	0.04175649	0.88941151	
780	0.85568225	0.23216403	0.62427008	
781	0.08878837	0.08932874	0.37932077	
782	0.74518853	0.63679862	0.90871066	
783	0.80635118	0.65125573	0.89224738	
784	0.00155019	0.95855564	0.74910772	
785	0.33699703	0.30236617	0.12977792	
786	0.23564990	0.29388556	0.71695018	
787	0.40589279	0.86007935	0.89154369	
788	0.94401515	0.29730409	0.28964666	