ITEM: TIMESTEP
10000
ITEM: NUMBER OF ATOMS
108000
ITEM: BOX BOUNDS pp pp pp
-1.2482351499846516e+01 9.8408304939846957e+01
-1.2482351499846516e+01 9.8408304939846957e+01
-1.2482351499846516e+01 9.8408304939846957e+01
ITEM: ATOMS id type x y z type
8 1 -8.90083 -10.5593 -10.549 1
63 1 -10.9102 -8.95298 -10.2309 1
902 1 -10.7666 -10.7494 -8.31408 1
36949 1 32.0793 42.77 28.3225 1
12061 1 -12.2646 9.73979 35.685 1
54004 1 42.8134 -10.8779 -11.1517 1
13981 1 -12.3668 16.94 42.939 1
9943 1 26.2138 -12.416 29.8881 1
965 1 -8.9276 -8.817 -8.52166 1
12 1 -5.08784 -10.605 -10.673 1
906 1 -6.672 -10.5981 -8.8546 1
969 1 -5.14902 -8.52151 -8.87305 1
67 1 -6.86257 -9.05885 -10.6144 1
29747 1 29.8231 42.8407 0.372148 1
16 1 -1.33835 -10.6762 -10.5517 1
973 1 -1.06451 -8.8683 -8.85027 1
71 1 -3.02219 -8.91187 -10.627 1
18 1 4.1 -10.6594 -12.2926 1
12121 1 -12.3476 13.5305 35.3642 1
34243 1 26.131 43.1299 18.926 1
20 1 2.55599 -10.7944 -10.5178 1
914 1 0.684267 -10.7897 -8.97095 1
977 1 2.39719 -8.82443 -8.41558 1
75 1 0.69892 -8.78818 -10.3814 1
709 1 31.7265 27.8543 -12.6108 1
85 1 9.9668 -8.89171 -12.4933 1
12184 1 -12.3946 18.9254 37.2601 1
13081 1 -12.1641 17.0742 39.3183 1
24 1 6.09691 -10.6009 -10.6571 1
79 1 4.17295 -8.62437 -10.354 1
918 1 4.40726 -10.7674 -8.81933 1
1264 1 -12.4932 11.7326 -6.88896 1
58141 1 43.1148 20.8646 2.3082 1
3121 1 -12.4014 13.9671 -1.76981 1
13201 1 -12.4317 24.4175 39.3624 1
28 1 9.91874 -10.5661 -10.6437 1
922 1 7.74734 -10.5267 -8.76025 1
985 1 9.59255 -8.44444 -9.0585 1
83 1 7.93523 -8.83858 -10.909 1
926 1 11.4846 -10.409 -8.39162 1
10823 1 7.72601 -12.4031 33.924 1
87 1 11.554 -8.99917 -10.2789 1
32 1 13.401 -10.8293 -10.4425 1
989 1 13.3927 -8.44 -8.58333 1
733 1 -1.49687 32.0035 -12.307 1
930 1 15.1498 -10.4283 -8.40658 1
786 1 -7.06869 37.8336 -12.2342 1
91 1 15.2378 -8.66107 -10.2968 1
36 1 17.1498 -10.3717 -10.3032 1
95 1 19.2762 -8.74375 -10.6135 1
934 1 18.855 -10.6943 -8.50034 1
8153 1 35.6967 -12.4891 20.6265 1
40 1 20.3948 -10.6916 -10.378 1
99 1 22.2365 -8.54778 -10.4685 1
938 1 22.4594 -10.4823 -8.63766 1
997 1 20.5768 -8.60755 -8.49702 1
68281 1 42.9985 35.2574 42.8363 1
11737 1 20.6411 -12.2314 35.4813 1
44 1 24.0806 -10.6498 -10.9927 1
103 1 25.9506 -8.73599 -10.7327 1
1001 1 24.2815 -8.47704 -8.83515 1
942 1 26.0182 -10.4723 -8.95512 1
7201 1 -12.385 -12.4015 17.3262 1
48 1 27.8058 -10.5624 -10.9532 1
107 1 29.7769 -8.77698 -10.9752 1
946 1 30.0119 -10.7306 -8.55174 1
1005 1 28.024 -8.57453 -8.63178 1
11715 1 0.472985 -12.6335 37.4638 1
57181 1 42.7014 17.1646 -1.78629 1
52 1 31.8034 -10.3941 -10.8111 1
111 1 33.7606 -8.59228 -10.7991 1
950 1 33.3017 -10.181 -8.68866 1
55264 1 42.8095 11.4114 -6.84447 1
56 1 35.2553 -10.6112 -10.7668 1
115 1 37.1996 -8.76224 -10.6158 1
954 1 37.1493 -10.6769 -8.99537 1
58981 1 43.0094 17.2479 5.78325 1
27903 1 -10.957 42.9212 -6.73407 1
10831 1 15.1926 -12.3484 33.4053 1
66 1 -7.0971 -7.39977 -12.4515 1
60 1 39.6364 -10.5463 -10.6359 1
1017 1 38.9083 -9.1593 -8.71357 1
958 1 41.144 -10.7729 -8.84202 1
13497 1 39.3032 39.1907 39.6118 1
68 1 -9.10677 -7.08315 -10.4258 1
123 1 -10.569 -5.24506 -10.5598 1
1025 1 -8.68707 -5.25138 -8.4094 1
962 1 -10.7007 -6.97373 -8.56624 1
1823 1 7.82984 -12.2247 -2.96386 1
244 1 -12.2745 4.32864 -10.8566 1
27011 1 -3.13525 42.8255 -10.6811 1
2581 1 -12.651 35.6949 -4.89885 1
72 1 -5.01747 -6.91605 -10.7136 1
127 1 -7.22024 -5.32954 -10.5971 1
966 1 -7.05109 -7.05979 -8.91364 1
1029 1 -4.9063 -5.01968 -9.00214 1
31513 1 -1.16703 42.8482 6.03929 1
10835 1 18.8764 -12.0179 34.0157 1
131 1 -3.08383 -5.09367 -10.5148 1
76 1 -1.27009 -6.93922 -10.9047 1
1033 1 -1.46385 -5.30257 -8.9481 1
970 1 -2.95197 -7.14168 -8.63492 1
30645 1 28.0324 42.7223 2.62723 1
56881 1 42.9714 -1.39468 -1.8024 1
80 1 2.26481 -6.77319 -10.2037 1
135 1 0.435094 -4.94182 -10.5405 1
974 1 0.250073 -7.00126 -8.39698 1
1037 1 2.30362 -4.99528 -8.67984 1
8584 1 -12.1438 18.7846 22.8004 1
84 1 5.8331 -6.72952 -10.6369 1
139 1 3.94628 -5.10302 -10.5549 1
978 1 4.21266 -6.97949 -8.7055 1
1041 1 5.74997 -5.12369 -8.45258 1
55504 1 42.9782 26.1713 -6.65978 1
88 1 9.68465 -6.68443 -10.5829 1
143 1 7.03658 -4.8236 -10.566 1
982 1 8.05976 -6.85972 -8.51748 1
30643 1 26.1081 42.8995 4.10551 1
1045 1 9.66041 -5.1634 -8.32853 1
27935 1 18.8035 43.1442 -7.04935 1
986 1 11.6898 -6.5916 -8.57225 1
147 1 11.4368 -4.97272 -10.4336 1
92 1 13.1431 -6.90784 -10.5335 1
1049 1 13.5639 -4.82791 -8.60433 1
990 1 14.9052 -6.76086 -8.5143 1
151 1 14.7539 -5.25845 -10.5215 1
993 1 16.9133 -8.48225 -8.63135 1
96 1 16.9582 -7.01242 -10.6655 1
1053 1 16.889 -5.05453 -8.51322 1
155 1 18.8088 -5.06471 -10.8126 1
994 1 18.9016 -6.7326 -8.6122 1
100 1 20.586 -6.8245 -10.4815 1
159 1 22.4447 -5.06818 -10.7012 1
998 1 22.2621 -6.67549 -8.58331 1
1057 1 20.3999 -4.87819 -8.60863 1
277 1 20.7685 2.05658 -12.3874 1
104 1 23.945 -6.947 -10.871 1
163 1 25.6197 -5.08021 -10.7642 1
1002 1 25.9805 -6.9024 -9.02636 1
1061 1 24.2342 -5.16619 -8.71241 1
309 1 -5.34337 5.80578 -12.4989 1
108 1 27.8058 -7.07848 -10.7287 1
167 1 29.7794 -5.23809 -10.5542 1
1006 1 29.6288 -6.80378 -8.74168 1
1065 1 27.8519 -5.22442 -9.16704 1
7241 1 24.3321 -12.2421 16.7178 1
112 1 31.9514 -6.51562 -10.6113 1
1069 1 31.5936 -5.12758 -8.56346 1
171 1 33.4016 -4.55401 -10.6037 1
1010 1 33.7942 -6.83839 -8.94364 1
11281 1 -12.2624 17.0543 32.073 1
54664 1 42.7906 29.8501 -10.3845 1
116 1 35.6599 -6.88653 -10.6617 1
175 1 37.5986 -4.91766 -10.9623 1
1014 1 37.657 -6.90575 -8.88728 1
943 1 26.2056 -12.3163 -7.05291 1
119 1 41.0637 -8.8822 -10.9297 1
120 1 38.9607 -7.04229 -10.9885 1
179 1 41.421 -5.17141 -11.0576 1
1018 1 40.8873 -6.94334 -9.19481 1
1077 1 39.0557 -5.15082 -8.98452 1
186 1 -7.41483 0.641971 -12.5022 1
10841 1 24.1797 -12.0505 31.9793 1
183 1 -10.823 -1.18638 -10.5812 1
128 1 -8.86981 -3.28429 -10.2931 1
1022 1 -10.7068 -3.08916 -8.7599 1
132 1 -5.21456 -3.25518 -10.5743 1
1026 1 -6.89402 -2.88751 -8.78525 1
187 1 -7.07135 -1.10805 -10.5839 1
1089 1 -5.21405 -1.27209 -8.65121 1
39651 1 33.4996 42.8594 41.1526 1
37851 1 33.5898 42.6648 33.9721 1
136 1 -1.4002 -3.15942 -10.8717 1
191 1 -3.42091 -1.52835 -10.7689 1
1030 1 -3.54697 -3.29211 -8.7537 1
5427 1 11.5138 -12.5773 11.3601 1
140 1 2.16113 -3.19621 -10.4916 1
1034 1 0.468362 -3.35609 -8.52087 1
195 1 0.442769 -1.4394 -10.432 1
1097 1 2.05751 -1.25399 -8.46519 1
11284 1 -12.143 18.8934 33.8978 1
144 1 5.6185 -3.12441 -10.5486 1
1038 1 3.94272 -3.42603 -8.75669 1
199 1 4.00176 -1.3234 -10.6902 1
1101 1 5.85505 -1.70878 -8.71127 1
148 1 9.32939 -3.47964 -10.5111 1
1042 1 7.75711 -3.22712 -8.3475 1
203 1 7.4822 -1.64977 -10.4637 1
1046 1 11.437 -3.32839 -8.38181 1
1105 1 9.4524 -1.52727 -8.8796 1
27959 1 41.1671 42.972 -7.11078 1
54544 1 42.9864 22.6194 -10.4412 1
152 1 13.0709 -3.29452 -10.4221 1
207 1 11.2245 -1.63208 -10.4746 1
1109 1 12.8839 -1.70262 -8.45249 1
211 1 14.9114 -1.41832 -10.4177 1
1050 1 15.0771 -3.0217 -8.39802 1
156 1 16.6328 -3.38626 -10.3529 1
215 1 19.1782 -1.62089 -10.8229 1
1113 1 17.3466 -1.50711 -9.32785 1
1054 1 19.0832 -3.15305 -9.09929 1
160 1 20.8315 -3.4792 -10.6933 1
1058 1 22.5316 -3.44437 -8.82882 1
219 1 22.4345 -1.57785 -10.7404 1
1117 1 21.1286 -1.74601 -8.8113 1
63481 1 42.227 17.2587 24.4599 1
164 1 24.087 -3.17402 -10.7656 1
223 1 25.8163 -1.27279 -10.5894 1
1121 1 24.5274 -1.66074 -8.79941 1
1062 1 26.0076 -3.54891 -8.87354 1
29753 1 35.6341 42.9184 -1.74684 1
168 1 27.6603 -3.13685 -10.8003 1
227 1 29.665 -1.64321 -10.4 1
1125 1 27.7177 -1.65905 -8.62875 1
1066 1 29.6157 -3.30373 -8.87955 1
66904 1 42.8706 7.9133 40.8465 1
34225 1 9.86491 42.9713 17.4397 1
172 1 31.4465 -3.40122 -10.6119 1
1070 1 33.5212 -3.28679 -8.52722 1
1129 1 31.611 -1.2168 -8.72336 1
231 1 33.6196 -1.59119 -10.427 1
4 1 -12.2964 -10.7652 -10.7913 1
126 1 -6.98869 -3.42815 -12.125 1
290 1 33.4395 3.7864 -12.6611 1
176 1 35.6957 -3.32139 -10.844 1
1074 1 37.4184 -3.36238 -8.78031 1
235 1 37.4966 -1.76606 -10.7473 1
1133 1 35.4189 -1.52922 -8.28058 1
29717 1 2.19371 42.987 -1.2056 1
3659 1 41.392 -12.154 4.18544 1
180 1 39.3512 -3.18297 -10.7263 1
1137 1 39.0207 -1.4229 -8.87594 1
239 1 40.7974 -1.36521 -10.7545 1
1078 1 41.0148 -3.51418 -9.15402 1
609 1 -4.94029 24.293 -11.8617 1
9937 1 20.6648 -12.1709 28.4383 1
13545 1 28.2144 -12.682 42.8299 1
38731 1 15.3274 42.9042 37.5488 1
188 1 -9.05016 0.577194 -10.6505 1
243 1 -10.7556 2.12928 -10.6492 1
1145 1 -8.89797 2.43195 -8.64556 1
1082 1 -10.635 0.537535 -8.67007 1
67261 1 42.8971 28.1413 39.7421 1
192 1 -5.33523 0.671863 -10.7237 1
247 1 -6.99524 2.35891 -10.7154 1
1086 1 -7.07781 0.390268 -8.54657 1
1149 1 -5.66851 2.55882 -8.66296 1
57901 1 43.0289 6.15889 2.27477 1
3124 1 -12.4161 15.2746 0.753762 1
13144 1 -12.1975 22.7057 41.1685 1
251 1 -3.65627 2.54505 -10.7547 1
196 1 -1.73341 0.611892 -10.5353 1
1153 1 -1.48066 2.31437 -8.80335 1
1090 1 -3.22234 0.633179 -8.81687 1
481 1 -12.438 17.3145 -12.5575 1
200 1 2.12635 0.470291 -10.52 1
255 1 0.334602 2.22692 -10.5275 1
1094 1 0.136877 0.464043 -8.85507 1
1157 1 2.02493 2.52266 -8.78569 1
1561 1 -12.2571 28.0311 -8.91715 1
34209 1 -5.08097 42.5756 17.3852 1
204 1 5.85187 0.253887 -10.7766 1
259 1 3.73895 2.27453 -10.5639 1
1161 1 5.7814 2.1429 -8.90099 1
1098 1 3.91484 0.638396 -8.5672 1
208 1 9.74062 0.282676 -10.6688 1
263 1 7.69477 2.21627 -10.58 1
1102 1 7.22601 0.258769 -8.78862 1
1165 1 9.91109 2.62415 -8.93128 1
267 1 11.3293 2.30551 -10.8147 1
212 1 13.509 0.527542 -10.3512 1
1106 1 11.4691 0.337761 -8.72806 1
1169 1 13.1472 2.42823 -8.8554 1
271 1 15.2869 2.456 -10.3993 1
1110 1 15.1275 0.490052 -8.671 1
216 1 16.716 0.410778 -10.8697 1
1173 1 17.0387 2.43399 -8.67954 1
275 1 18.8139 2.1989 -10.7884 1
1114 1 19.0874 0.239924 -9.15365 1
313 1 -1.7475 5.91613 -12.2313 1
27931 1 15.3745 42.8336 -7.17871 1
220 1 20.9156 0.377867 -10.7293 1
279 1 22.5053 2.35937 -10.6207 1
1118 1 22.633 0.429479 -8.45275 1
1177 1 20.7163 2.04189 -8.77348 1
56284 1 43.0082 18.7464 -3.54397 1
1843 1 26.2034 -12.2078 -3.2041 1
224 1 24.3625 0.793205 -10.5683 1
283 1 26.1227 2.61358 -10.6605 1
1181 1 24.212 2.18926 -8.70737 1
1122 1 26.0116 0.348435 -8.76206 1
228 1 27.8107 0.563254 -10.679 1
287 1 29.7132 2.43802 -10.9308 1
1126 1 29.6367 0.495039 -8.75019 1
1185 1 27.9534 2.30395 -8.7274 1
1841 1 24.3773 -11.9352 -5.27631 1
232 1 31.6026 0.218736 -10.3816 1
1189 1 31.7718 2.02437 -8.85365 1
291 1 33.5408 1.96812 -10.8005 1
1130 1 33.6597 0.224954 -8.66925 1
64 1 -12.3967 -6.94352 -10.6555 1
236 1 35.401 0.121139 -10.4265 1
295 1 37.3322 2.16939 -10.8726 1
1134 1 37.3778 0.274197 -9.06259 1
240 1 39.0464 0.579343 -10.7557 1
1193 1 35.3 2.13831 -8.9197 1
86 1 11.4186 -7.11188 -12.169 1
12607 1 -6.79127 -12.3119 41.1524 1
299 1 40.9586 2.53816 -10.9262 1
1138 1 41.1225 0.53738 -9.18309 1
1197 1 38.9832 2.1917 -8.96258 1
10681 1 -12.7253 35.6058 27.9189 1
9925 1 9.56681 -12.3295 28.2884 1
13498 1 41.3792 41.175 39.5382 1
248 1 -8.96311 4.32325 -10.3855 1
303 1 -10.5588 5.93232 -10.6914 1
1205 1 -9.32616 5.92776 -8.45868 1
1142 1 -11.2993 4.34044 -8.5351 1
939 1 22.7291 -12.2585 -7.04041 1
252 1 -5.41158 4.11787 -10.4925 1
307 1 -7.11516 5.91188 -10.3965 1
1146 1 -7.3401 4.21981 -8.10375 1
66961 1 43.0376 9.84433 39.2541 1
27913 1 -1.36202 42.8408 -8.21273 1
311 1 -3.69242 5.69826 -10.598 1
256 1 -1.67503 3.81438 -10.4739 1
1213 1 -1.72292 5.82402 -8.81716 1
209 1 13.2392 -1.23747 -12.1996 1
266 1 11.6199 4.18842 -12.3959 1
260 1 2.0899 4.33474 -10.3623 1
315 1 0.297826 6.06082 -10.7805 1
1154 1 0.191793 4.18807 -8.80114 1
361 1 -12.4088 9.73867 -12.5006 1
56821 1 42.8089 -5.24462 -1.41282 1
264 1 5.88597 4.27776 -10.5978 1
319 1 4.06813 5.965 -10.6389 1
55864 1 42.8619 -6.79006 -3.40482 1
268 1 9.49556 4.04398 -10.9668 1
323 1 7.83903 5.99519 -11.0334 1
1225 1 9.49372 5.41764 -9.04362 1
327 1 11.3889 6.00341 -10.4991 1
6347 1 29.9467 -12.4007 14.9122 1
57721 1 42.9146 -5.12528 2.60763 1
65104 1 42.69 7.94506 33.5396 1
272 1 13.2103 4.11468 -10.7413 1
1229 1 13.4528 6.21656 -8.76355 1
1170 1 15.1003 4.19256 -8.79536 1
331 1 15.3897 6.25221 -10.4828 1
276 1 16.9772 4.20124 -10.3072 1
1233 1 17.3144 6.30647 -8.65961 1
335 1 18.9328 5.88916 -10.8464 1
1174 1 19.0797 3.8743 -8.52948 1
280 1 20.8124 4.07703 -10.4895 1
339 1 22.5574 5.88513 -10.7653 1
1178 1 22.3524 4.10624 -8.44985 1
1237 1 20.4982 6.43376 -8.69621 1
10501 1 -12.6601 24.6309 28.0615 1
274 1 19.087 4.08478 -12.3826 1
284 1 24.452 4.24951 -10.4705 1
343 1 26.3989 6.13581 -10.6015 1
1182 1 26.3935 4.44878 -8.89839 1
1241 1 24.4843 6.14737 -8.7311 1
288 1 28.2323 4.54137 -10.6787 1
347 1 29.9871 5.97821 -10.8274 1
1186 1 30.107 3.8062 -9.04612 1
1245 1 28.3906 6.17349 -8.52818 1
11644 1 -12.4981 41.0509 33.9816 1
9841 1 -12.202 39.3536 24.8712 1
292 1 31.566 4.02805 -10.8666 1
1249 1 31.8658 5.88503 -8.97976 1
351 1 33.2641 5.94089 -11.0427 1
57604 1 43.0154 -10.5106 4.1971 1
7203 1 -10.6865 -12.4251 18.9889 1
296 1 35.46 4.02255 -11.0708 1
355 1 37.0357 5.97958 -10.5353 1
1194 1 37.2378 4.28924 -8.81256 1
1253 1 34.9078 6.12921 -9.09904 1
714 1 37.479 29.7467 -12.4412 1
300 1 39.1873 4.09423 -10.9435 1
359 1 41.038 6.26917 -10.8692 1
1198 1 41.0052 4.50225 -8.95694 1
1257 1 39.1363 5.96515 -9.02484 1
365 1 -8.77906 10.0742 -12.5769 1
54424 1 42.7221 15.0824 -10.6951 1
641 1 24.473 24.3819 -12.6253 1
308 1 -9.07179 7.67007 -10.2126 1
363 1 -10.7225 9.83367 -10.2375 1
1202 1 -10.6766 8.02868 -8.33247 1
1265 1 -8.95032 9.49797 -8.15958 1
2755 1 37.478 -12.4294 0.403986 1
13499 1 41.0354 39.1833 41.2895 1
36053 1 35.6706 42.8726 24.6927 1
4141 1 -12.4462 20.7646 2.29328 1
89 1 13.1281 -8.68828 -12.4355 1
312 1 -5.16086 7.60049 -10.6987 1
367 1 -7.04513 10.2039 -10.7594 1
1206 1 -7.20577 8.10442 -8.9485 1
1269 1 -5.38384 10.0324 -8.84497 1
11739 1 22.6135 -11.7235 37.1427 1
371 1 -3.51615 9.60901 -10.5705 1
316 1 -1.59193 7.93065 -10.8305 1
1273 1 -1.71203 9.86523 -8.99815 1
1839 1 22.5674 -12.0312 -3.31298 1
29713 1 -1.73197 42.9379 -1.2716 1
30623 1 7.47232 42.8506 4.50793 1
320 1 2.14594 7.71837 -10.615 1
375 1 0.487097 9.7304 -10.5912 1
1214 1 0.319492 7.79659 -8.92822 1
380 1 2.58511 11.478 -10.558 1
345 1 28.0419 6.1189 -12.3398 1
324 1 5.83314 7.8303 -10.7822 1
379 1 4.34934 9.60155 -10.319 1
1218 1 4.13665 7.88355 -8.77704 1
1281 1 6.32473 9.41743 -8.93967 1
4501 1 -12.2341 -12.4043 6.35236 1
328 1 9.68772 7.71949 -10.7621 1
383 1 8.09831 9.73693 -10.8453 1
1222 1 7.6353 7.52055 -8.93742 1
1285 1 9.2104 9.41383 -8.895 1
387 1 11.8189 9.56528 -10.4913 1
332 1 13.473 7.80812 -10.5437 1
9051 1 33.8096 -12.3089 26.4326 1
1289 1 13.2525 9.66834 -8.63925 1
935 1 18.7888 -12.1673 -6.81745 1
391 1 15.4013 9.72511 -10.9073 1
1230 1 15.4242 8.14497 -8.87952 1
336 1 17.1841 7.78296 -10.5038 1
1293 1 16.8771 9.85382 -8.77012 1
395 1 18.7301 9.78571 -10.7306 1
1234 1 18.806 8.1072 -8.80364 1
37853 1 35.5267 42.8512 31.9674 1
340 1 20.62 7.97841 -10.6115 1
399 1 22.4738 9.829 -10.4015 1
1238 1 22.9221 7.61135 -8.65407 1
1297 1 21.0996 9.45207 -8.60526 1
62761 1 43.0612 28.0697 20.536 1
2941 1 -12.5152 1.92415 -1.24609 1
344 1 24.2932 7.79819 -10.7722 1
403 1 26.3346 9.3446 -10.7072 1
1301 1 24.6128 9.53319 -8.7303 1
1242 1 26.399 7.84132 -8.49396 1
348 1 28.3283 7.83084 -10.6706 1
407 1 30.0661 9.59495 -10.6287 1
1246 1 30.0553 7.91252 -9.03795 1
1305 1 28.1465 9.81763 -8.6806 1
408 1 27.8666 11.7178 -10.5722 1
1306 1 29.7088 11.8293 -8.7435 1
7921 1 -12.3809 31.9442 17.1507 1
11944 1 -12.3892 3.93098 37.2067 1
352 1 31.9225 8.06497 -10.7716 1
411 1 33.6377 9.68372 -10.6087 1
1250 1 33.4454 7.92691 -8.89523 1
1310 1 33.4965 11.6296 -8.84411 1
27007 1 -7.09567 42.8518 -10.4225 1
356 1 35.2064 7.6096 -10.7949 1
415 1 37.327 9.62459 -10.5994 1
1313 1 35.8136 9.46369 -8.78393 1
1254 1 37.5367 7.9602 -8.88337 1
129 1 -5.21705 -4.97484 -12.1131 1
28857 1 39.3704 42.807 -5.17546 1
360 1 39.286 7.68921 -10.7048 1
419 1 41.0619 9.67137 -10.7373 1
1258 1 40.7889 7.65135 -8.91054 1
1317 1 39.3015 9.49074 -8.88172 1
9033 1 16.8375 -12.3191 24.4004 1
282 1 25.9753 4.40738 -12.4651 1
4525 1 9.36196 -12.7898 5.81546 1
368 1 -8.99976 11.5403 -10.215 1
1262 1 -10.6201 11.678 -8.65031 1
423 1 -10.5847 13.2079 -10.6892 1
1325 1 -8.54728 13.7548 -8.65036 1
1322 1 -10.5447 15.3522 -9.13318 1
39635 1 19.1578 42.8428 41.0863 1
372 1 -4.81062 11.8767 -10.621 1
427 1 -7.06789 13.7214 -10.5241 1
1329 1 -5.44103 13.5723 -8.88395 1
1326 1 -7.3504 15.6612 -8.78997 1
432 1 -4.95383 15.593 -10.3859 1
1266 1 -7.08084 11.7036 -8.74427 1
8521 1 -12.444 13.471 20.5329 1
376 1 -1.20087 11.8678 -10.7294 1
431 1 -3.15085 14.0246 -10.8439 1
1333 1 -1.19226 13.7765 -8.79204 1
436 1 -0.994898 15.304 -11.0059 1
1330 1 -3.0269 15.5061 -8.7191 1
435 1 0.551112 13.4688 -10.4899 1
440 1 2.36337 15.0552 -10.4858 1
1337 1 2.63622 13.363 -8.63813 1
10924 1 -12.5686 -3.22588 33.471 1
67024 1 42.7778 15.2505 41.0998 1
30633 1 17.0753 42.7587 2.05906 1
384 1 6.03523 11.5484 -10.8513 1
439 1 4.12266 13.5003 -10.5798 1
1341 1 6.25531 13.3094 -8.58887 1
1278 1 4.37253 11.8367 -8.9505 1
388 1 9.72228 11.6259 -10.6292 1
1282 1 7.92403 11.329 -8.72759 1
443 1 8.12078 13.5557 -10.6962 1
1345 1 9.76227 13.5369 -8.84026 1
1342 1 7.98207 15.3303 -8.5237 1
55384 1 42.7761 18.7633 -6.61573 1
646 1 29.8399 26.1539 -12.3871 1
1286 1 11.6846 11.6152 -8.74813 1
392 1 13.6273 11.3747 -10.5821 1
447 1 11.4359 13.397 -10.4541 1
1346 1 11.8048 15.4048 -8.8771 1
1349 1 13.2644 13.486 -8.73942 1
57244 1 42.9318 22.8266 0.702749 1
451 1 15.3286 13.6321 -10.4516 1
1290 1 15.2277 11.7782 -8.71874 1
396 1 17.2095 11.7434 -10.745 1
1353 1 17.3627 13.4935 -8.5037 1
455 1 19.0135 13.4251 -10.4149 1
1294 1 18.9339 11.5475 -8.71735 1
1354 1 19.0762 15.5031 -8.58814 1
400 1 21.1199 11.8257 -10.2603 1
459 1 22.9338 13.2938 -10.3535 1
1357 1 20.9462 13.3749 -8.55959 1
460 1 20.7078 15.0543 -10.4438 1
1358 1 22.7013 15.1623 -8.84032 1
1298 1 22.7575 11.4675 -8.61856 1
64561 1 42.7769 28.2466 28.0998 1
404 1 24.5597 11.1486 -10.5141 1
1302 1 26.0525 11.4856 -8.68994 1
463 1 26.0295 13.2143 -10.3842 1
1361 1 24.5041 13.4844 -8.57848 1
11764 1 -12.6573 -7.14469 37.4528 1
467 1 29.7901 13.4794 -11.0604 1
1365 1 27.8774 13.2002 -8.87991 1
27945 1 28.078 42.6265 -8.6759 1
734 1 0.482529 33.9376 -12.1982 1
1803 1 -10.5532 -12.4637 -2.99188 1
412 1 32.159 11.5874 -10.9658 1
471 1 33.7055 13.4335 -10.6008 1
472 1 31.5311 15.2465 -10.9587 1
1369 1 31.7891 13.4803 -9.02649 1
28845 1 28.3386 42.8319 -5.06515 1
7233 1 17.1007 -12.3828 16.8974 1
416 1 35.4669 11.4443 -10.6434 1
1314 1 37.5315 11.4511 -9.07963 1
475 1 37.3481 13.4173 -10.8595 1
1373 1 35.2334 13.3954 -8.71575 1
65941 1 42.9601 2.67125 35.6799 1
210 1 15.2787 0.52576 -12.4866 1
420 1 39.2955 11.5246 -11.1045 1
1377 1 39.0721 13.3043 -8.79638 1
479 1 40.979 13.3348 -10.5838 1
480 1 38.8679 15.1496 -10.6171 1
4204 1 -12.4875 26.3537 4.18549 1
726 1 -6.96628 34.2747 -12.2954 1
10817 1 2.0568 -12.5061 32.0207 1
13021 1 -12.3722 13.6719 39.2922 1
483 1 -10.5563 17.3018 -10.5591 1
488 1 -8.74533 18.7681 -10.5959 1
1382 1 -10.5488 19.0174 -8.64054 1
428 1 -8.65989 15.3693 -10.825 1
329 1 13.4217 6.07851 -12.1709 1
64861 1 42.5452 -8.92711 32.2286 1
1385 1 -9.22595 17.1186 -8.69055 1
487 1 -6.9843 17.2174 -10.5317 1
1389 1 -4.64096 17.5021 -8.97281 1
492 1 -5.05014 19.0244 -10.4573 1
1386 1 -7.0197 18.7945 -8.92886 1
29725 1 10.333 42.7202 -1.62679 1
491 1 -2.61765 17.1212 -10.378 1
1393 1 -1.02213 17.1054 -8.32507 1
496 1 -0.926312 18.946 -10.7179 1
1390 1 -2.69005 18.7312 -8.81429 1
789 1 -4.98789 35.7421 -11.728 1
34259 1 41.1133 42.5116 18.8239 1
1334 1 0.817447 15.2226 -8.25737 1
495 1 0.875199 16.967 -10.4831 1
500 1 2.23622 18.8978 -10.6035 1
32429 1 13.3459 42.884 9.33734 1
444 1 6.15683 14.9689 -10.5453 1
1338 1 4.64489 15.0485 -8.33951 1
499 1 4.08575 17.2776 -10.5967 1
1398 1 4.22191 19.2916 -8.76156 1
504 1 5.81103 19.0614 -10.7974 1
1401 1 6.05137 17.5926 -8.71486 1
341 1 24.3845 6.08719 -12.524 1
4024 1 -12.6568 15.1314 3.97268 1
1864 1 -12.5609 -6.92076 -3.27521 1
448 1 9.59232 15.5662 -10.5815 1
503 1 7.53422 17.1152 -10.3931 1
508 1 9.666 18.9698 -10.823 1
1405 1 9.57391 17.4002 -8.79212 1
67084 1 42.8136 18.8184 40.9885 1
452 1 13.3454 15.2398 -10.5646 1
507 1 11.3194 17.3119 -10.6184 1
1409 1 13.6809 17.1559 -8.49199 1
512 1 13.1989 19.026 -10.9147 1
1410 1 15.2363 18.8544 -8.90892 1
1406 1 12.069 19.0011 -8.76359 1
70 1 -3.25331 -6.97596 -12.581 1
11161 1 -11.9408 9.81825 31.9256 1
78 1 4.18187 -6.69989 -12.6192 1
66901 1 42.8337 6.00383 39.1468 1
456 1 17.2623 15.4386 -10.4842 1
511 1 15.3828 17.0794 -10.936 1
1413 1 17.4803 17.0611 -8.7817 1
516 1 17.2408 18.8436 -10.6639 1
1414 1 19.0046 18.9066 -8.89671 1
225 1 27.9783 -1.52371 -12.1641 1
36013 1 -0.950893 43.0588 24.8432 1
515 1 19.1808 17.2189 -10.6603 1
519 1 22.5762 16.8341 -10.6166 1
1417 1 20.8675 17.0971 -8.77035 1
520 1 20.9407 18.7253 -10.5242 1
10843 1 26.3978 -12.2875 33.7412 1
464 1 24.5686 15.2001 -10.5095 1
1362 1 26.5257 15.0818 -8.81432 1
523 1 26.0113 16.7593 -10.7355 1
524 1 24.1188 18.5578 -10.4215 1
1422 1 26.1787 18.633 -8.866 1
1421 1 24.5247 16.7263 -8.50893 1
838 1 40.8192 37.2934 -12.5172 1
63004 1 42.7725 -10.7729 26.4655 1
1366 1 29.5306 15.0753 -8.96988 1
468 1 27.91 14.7564 -11.2865 1
527 1 29.7141 16.7153 -10.4863 1
528 1 27.979 18.6933 -10.626 1
1425 1 28.055 17.0363 -8.74841 1
1426 1 29.8677 18.5395 -8.50023 1
289 1 31.4812 1.98523 -12.4915 1
1809 1 -5.42817 -12.3666 -4.89883 1
557 1 2.53843 21.0914 -12.4661 1
1370 1 33.4535 15.5642 -8.68118 1
1429 1 31.4979 16.7723 -8.80339 1
531 1 33.5383 16.7979 -10.7714 1
532 1 31.5909 18.5371 -10.6959 1
1430 1 33.3581 18.5069 -8.77456 1
919 1 4.18529 -12.1064 -6.49133 1
476 1 35.8264 15.119 -10.6086 1
535 1 37.3751 17.0264 -10.6406 1
1433 1 35.3638 17.0978 -9.05197 1
1434 1 37.2892 18.6964 -8.87406 1
536 1 35.224 18.697 -10.7069 1
1378 1 41.1068 14.9947 -9.02128 1
539 1 40.8986 16.8374 -10.5522 1
540 1 39.4058 18.8267 -10.8212 1
1438 1 41.2589 18.4729 -8.76361 1
1437 1 39.2484 17.2944 -8.9334 1
66604 1 43.0049 -10.8247 40.9198 1
13500 1 39.2384 41.2638 40.9764 1
30627 1 11.4677 42.9049 4.22453 1
543 1 -10.7723 20.8226 -10.7338 1
548 1 -8.78547 22.6851 -10.6477 1
1445 1 -8.89027 20.6086 -9.03511 1
1442 1 -10.6992 22.7078 -8.85343 1
814 1 18.9811 37.2314 -12.3996 1
547 1 -6.90464 20.5621 -10.4541 1
552 1 -4.96821 22.4122 -10.6204 1
1449 1 -4.91454 20.6518 -8.65045 1
1446 1 -6.83272 22.6336 -9.09071 1
269 1 13.4126 2.255 -12.0757 1
36007 1 -7.04459 42.7908 26.5358 1
551 1 -3.09943 20.9361 -10.4258 1
556 1 -1.46481 22.9675 -10.2081 1
1453 1 -1.01027 20.7843 -9.14616 1
1450 1 -3.60196 22.8358 -8.67349 1
555 1 0.533965 20.9355 -10.6007 1
1457 1 2.45812 20.9851 -8.81937 1
560 1 2.07225 23.1077 -10.9217 1
10837 1 20.8582 -11.8573 31.5973 1
1454 1 0.752923 22.8172 -9.02929 1
3244 1 -12.1608 22.7908 0.65819 1
65884 1 42.3918 0.622059 37.1884 1
559 1 4.0358 20.677 -10.4961 1
564 1 5.92128 22.5667 -10.5157 1
1461 1 5.98156 20.8918 -8.77021 1
9935 1 18.9458 -12.1648 30.0038 1
563 1 7.94261 20.8298 -10.7395 1
568 1 9.96034 22.5364 -10.9597 1
1462 1 8.27515 22.5313 -8.79893 1
1465 1 9.96893 20.6389 -8.91254 1
722 1 -10.8858 33.9094 -12.7156 1
590 1 33.3984 22.4655 -12.2616 1
55 1 37.471 -12.4121 -10.683 1
567 1 11.3836 20.593 -10.5679 1
572 1 12.9772 22.4561 -10.6771 1
1469 1 13.6548 21.0263 -8.6127 1
571 1 15.126 20.9266 -10.7042 1
1470 1 15.4334 22.7797 -9.18511 1
576 1 17.3826 22.8237 -10.8997 1
575 1 18.9351 20.8856 -10.6951 1
1473 1 17.284 20.5411 -8.92646 1
1474 1 18.8631 22.8783 -8.90693 1
877 1 20.9122 39.4239 -12.2783 1
64984 1 42.6321 0.621144 33.77 1
544 1 -12.4266 22.9051 -10.9154 1
579 1 22.6059 20.6676 -10.2494 1
580 1 21.0233 22.6142 -10.6975 1
1477 1 20.8485 20.6727 -9.02516 1
74 1 0.402982 -7.05228 -12.6578 1
1478 1 22.9583 22.4011 -8.67263 1
583 1 25.9586 20.4559 -10.76 1
584 1 24.3093 22.1944 -10.5225 1
1482 1 25.993 22.3587 -9.2074 1
1835 1 18.407 -12.0335 -2.96225 1
429 1 -4.79157 13.7966 -12.6153 1
587 1 30.1294 20.2945 -10.0062 1
588 1 28.0771 22.2721 -10.6751 1
1485 1 27.8491 20.2289 -8.7544 1
1486 1 29.8377 21.9774 -8.72486 1
39639 1 22.6546 42.9832 41.4106 1
3481 1 -12.5591 35.9431 -1.38256 1
592 1 31.8641 22.1735 -10.6598 1
591 1 33.789 20.4995 -10.4507 1
1489 1 32.0119 20.5288 -8.46208 1
306 1 -6.92327 8.07001 -12.3645 1
1490 1 33.5726 22.6946 -9.02895 1
595 1 37.6976 20.4448 -10.7389 1
596 1 35.2957 22.3876 -10.6479 1
1493 1 35.7048 20.2296 -9.17154 1
1494 1 37.5619 22.2718 -8.96126 1
4529 1 13.3261 -12.3419 5.93072 1
933 1 17.0083 -12.4538 -8.38922 1
600 1 39.2368 22.4475 -10.9802 1
1497 1 39.3238 20.2161 -8.93626 1
599 1 40.9998 20.534 -10.7717 1
1498 1 40.7636 21.9961 -8.91256 1
28839 1 22.6278 43.0546 -3.29869 1
57361 1 42.594 28.1731 -1.68088 1
603 1 -10.5846 24.4104 -10.6156 1
1502 1 -10.6904 26.4536 -8.88509 1
608 1 -8.79766 26.4463 -10.6625 1
11753 1 35.3827 -12.4249 35.7523 1
1505 1 -8.88992 24.608 -8.89925 1
607 1 -7.17382 24.5537 -10.6216 1
612 1 -5.03532 26.5496 -10.5202 1
1509 1 -5.29588 24.5963 -9.02722 1
1506 1 -6.80988 26.5839 -8.94742 1
611 1 -3.00825 24.8907 -10.363 1
1510 1 -3.53923 26.4071 -8.44532 1
616 1 -1.27482 26.7697 -10.7525 1
1513 1 -1.22892 24.6917 -8.56708 1
11755 1 37.4303 -12.5852 37.1307 1
615 1 0.181264 24.9055 -10.2994 1
620 1 2.09797 26.4603 -10.7254 1
1514 1 0.0402646 26.7256 -8.66834 1
1517 1 2.34822 24.7254 -8.79403 1
394 1 19.4042 11.6614 -12.1605 1
285 1 27.7113 2.46291 -12.4671 1
619 1 3.8954 24.7933 -11.0129 1
624 1 5.82242 26.3647 -10.9686 1
1518 1 4.32189 26.2491 -8.98165 1
1521 1 6.18076 24.8789 -8.92264 1
326 1 11.4643 7.65587 -12.4684 1
623 1 7.89076 24.2902 -10.6213 1
628 1 9.82102 26.4565 -10.9054 1
1522 1 8.11754 26.4865 -9.09903 1
59041 1 42.8796 20.6967 5.9227 1
627 1 11.4709 24.3939 -11.1538 1
632 1 13.088 26.069 -10.6522 1
1529 1 13.5118 24.296 -9.03664 1
1526 1 11.2041 26.134 -8.83474 1
631 1 15.1129 24.6059 -10.8821 1
1530 1 15.0017 26.273 -8.63842 1
636 1 16.9739 26.2987 -10.6737 1
1533 1 17.0842 24.8521 -8.94301 1
1534 1 19.1674 25.9746 -8.45813 1
635 1 19.0067 24.5654 -10.6682 1
4981 1 -12.5449 16.7101 5.77312 1
10839 1 22.5277 -12.1614 33.6443 1
639 1 22.6993 24.0132 -10.8979 1
640 1 20.9478 26.3212 -10.3774 1
1537 1 20.9627 24.2479 -8.78547 1
1538 1 22.8868 26.1996 -8.90776 1
374 1 0.96873 11.7712 -12.5166 1
643 1 26.4725 24.4344 -10.585 1
644 1 24.9162 26.4515 -10.7471 1
64084 1 42.253 0.786519 30.0212 1
647 1 30.181 24.3202 -10.7847 1
648 1 28.1955 25.9229 -10.6124 1
1546 1 30.3643 26.4912 -8.85782 1
1545 1 28.4997 24.2561 -8.59817 1
11941 1 -12.402 2.08323 35.4688 1
36019 1 4.10911 42.8492 26.9049 1
652 1 31.923 26.348 -10.6544 1
651 1 33.7734 24.4087 -10.93 1
1549 1 31.9709 24.1316 -8.90757 1
1550 1 33.7019 26.5593 -8.47319 1
246 1 -7.08404 4.21906 -12.395 1
13141 1 -12.6004 20.5199 39.0099 1
237 1 38.8669 -1.56205 -12.6322 1
655 1 37.5678 24.0757 -10.6546 1
656 1 35.4245 26.1322 -10.9779 1
659 1 41.1906 24.5261 -10.693 1
660 1 39.5196 26.3357 -10.4731 1
1558 1 41.3853 26.2381 -8.75266 1
39623 1 7.89417 42.86 41.2063 1
90 1 14.8807 -6.94314 -12.2465 1
5401 1 -12.4629 -12.2222 10.2101 1
663 1 -10.7059 28.2301 -10.9589 1
1565 1 -8.78421 28.1368 -8.93545 1
668 1 -8.82518 29.9855 -10.6227 1
1562 1 -10.6233 29.9845 -9.01376 1
589 1 31.8243 20.5704 -12.3291 1
4984 1 -12.4747 18.9498 7.54471 1
12617 1 2.40653 -12.2538 39.5437 1
667 1 -6.58734 28.2913 -10.9397 1
672 1 -4.95459 30.7192 -10.8249 1
1569 1 -4.99822 28.1028 -8.88344 1
1566 1 -6.85591 29.7871 -9.22164 1
671 1 -3.53518 28.4487 -10.8105 1
1570 1 -3.51194 30.4596 -8.70567 1
676 1 -1.80456 30.2125 -10.5488 1
1573 1 -1.90209 28.3419 -9.06102 1
55084 1 43.0639 0.595444 -6.94248 1
675 1 0.227852 28.4842 -10.796 1
680 1 2.33163 30.1087 -10.4628 1
1574 1 0.136025 29.4649 -8.63068 1
1577 1 2.50051 28.2129 -9.13837 1
37815 1 0.598929 42.851 33.7957 1
57301 1 42.7502 24.6072 -1.30033 1
679 1 4.23328 28.116 -10.4556 1
684 1 5.8805 30.0567 -10.874 1
1581 1 6.14372 28.2475 -8.97635 1
1578 1 4.37501 29.8469 -8.64305 1
57124 1 43.1468 15.0462 -0.0792779 1
683 1 7.40537 28.0349 -11.1937 1
688 1 9.80149 30.1005 -11.1138 1
1582 1 7.88479 30.147 -9.15871 1
1585 1 9.61734 28.2457 -9.30216 1
55021 1 42.9703 -5.37007 -9.0859 1
687 1 11.7224 28.3236 -10.9162 1
1586 1 11.8621 29.9643 -9.09609 1
692 1 13.4806 30.1537 -10.8013 1
1589 1 13.2303 27.8254 -9.0292 1
691 1 14.8958 28.0801 -10.6622 1
1590 1 15.2379 30.0429 -9.02961 1
2737 1 20.6083 -12.3063 -1.50906 1
696 1 17.0154 29.3636 -10.5699 1
1593 1 16.9281 28.0816 -8.73294 1
695 1 19.3456 28.3763 -10.4168 1
1594 1 18.6784 30.0728 -8.70918 1
11745 1 28.031 -12.3044 35.8888 1
54484 1 43.0264 18.871 -10.4259 1
699 1 22.505 27.9065 -10.7978 1
700 1 21.218 30.005 -10.6789 1
1598 1 22.83 30.1841 -8.68249 1
1597 1 20.99 27.9347 -8.76323 1
638 1 22.7904 26.254 -12.4775 1
654 1 37.5553 26.0592 -11.9982 1
703 1 26.6903 27.9732 -10.5708 1
704 1 24.3045 29.9497 -10.8159 1
1601 1 24.5069 28.0494 -8.91965 1
707 1 29.7076 28.0785 -10.8853 1
708 1 28.1069 30.2385 -10.8707 1
1606 1 29.921 29.9036 -8.97124 1
12124 1 -12.585 15.2317 37.1561 1
712 1 31.8963 30.0017 -10.7852 1
1609 1 31.6242 28.4466 -8.98574 1
711 1 33.6235 27.9745 -10.7085 1
1610 1 33.6735 29.7756 -8.90282 1
66421 1 43.0062 31.3472 35.8419 1
715 1 37.6054 28.1019 -10.6104 1
716 1 35.8795 29.9153 -10.6006 1
1614 1 37.1908 29.9034 -8.72006 1
720 1 39.3089 30.1249 -10.4845 1
1613 1 35.5645 28.0963 -8.85149 1
1444 1 -12.5435 22.5238 -7.07149 1
719 1 41.159 27.9551 -10.5487 1
1617 1 39.2662 28.2812 -8.80427 1
1618 1 41.3558 29.9455 -8.52063 1
3304 1 -12.5454 26.3403 0.618803 1
35113 1 -1.29113 42.6845 20.9902 1
9941 1 24.6877 -12.3663 27.902 1
217 1 20.7719 -1.51459 -12.4697 1
593 1 35.3909 20.4098 -12.4121 1
723 1 -10.5293 31.9917 -10.7049 1
1622 1 -10.4864 33.2795 -8.72159 1
728 1 -8.73771 33.667 -10.4347 1
205 1 9.34969 -1.28638 -12.3025 1
149 1 13.115 -5.27915 -12.6946 1
214 1 18.8248 0.337735 -12.2054 1
727 1 -6.98063 32.1117 -10.8712 1
1629 1 -5.29023 32.0011 -8.74721 1
732 1 -5.04369 33.692 -10.4823 1
1626 1 -7.23708 33.5915 -8.56774 1
731 1 -3.28103 32.2356 -10.5323 1