ITEM: TIMESTEP
0
ITEM: NUMBER OF ATOMS
17280
ITEM: BOX BOUNDS pp pp pp
0	1.00000000
0	1.00000000
0	1.00000000
ITEM: ATOMS id x y z 
1	0.24257830	0.01346957	0.50000000	
2	0.38313885	0.41465269	0.50000000	
3	0.06776897	0.99312693	0.50000000	
4	0.48430805	0.76533777	0.50000000	
5	0.03183382	0.03093548	0.50000000	
6	0.93264044	0.88787953	0.50000000	
7	0.59132973	0.47877868	0.50000000	
8	0.83335434	0.18633520	0.50000000	
9	0.73565271	0.11505317	0.50000000	
10	0.69865863	0.35560411	0.50000000	
11	0.63830001	0.90821051	0.50000000	
12	0.29400041	0.26497159	0.50000000	
13	0.37749400	0.54162012	0.50000000	
14	0.00928182	0.99946528	0.50000000	
15	0.01290192	0.84249732	0.50000000	
16	0.85247022	0.46701098	0.50000000	
17	0.05360723	0.97674759	0.50000000	
18	0.19675474	0.85697294	0.50000000	
19	0.14421376	0.80066219	0.50000000	
20	0.72939762	0.98579065	0.50000000	
21	0.18340571	0.49976021	0.50000000	
22	0.46986202	0.97099130	0.50000000	
23	0.45077026	0.09579188	0.50000000	
24	0.97408165	0.39023506	0.50000000	
25	0.68067036	0.02666932	0.50000000	
26	0.23124107	0.46873909	0.50000000	
27	0.09796010	0.41541003	0.50000000	
28	0.79629419	0.31640260	0.50000000	
29	0.77853445	0.82849331	0.50000000	
30	0.48714042	0.36904878	0.50000000	
31	0.60284550	0.02426436	0.50000000	
32	0.81111179	0.35579259	0.50000000	
33	0.80610905	0.27487712	0.50000000	
34	0.85981740	0.95101906	0.50000000	
35	0.77727618	0.68083746	0.50000000	
36	0.83518541	0.96112961	0.50000000	
37	0.70542475	0.07375123	0.50000000	
38	0.53685709	0.95718558	0.50000000	
39	0.41806502	0.41877680	0.50000000	
40	0.38161700	0.83692747	0.50000000	
41	0.24006225	0.72621120	0.50000000	
42	0.43161282	0.11669090	0.50000000	
43	0.22391323	0.30958796	0.50000000	
44	0.24480139	0.37703383	0.50000000	
45	0.80753940	0.31473643	0.50000000	
46	0.77522957	0.28333411	0.50000000	
47	0.99634872	0.63286731	0.50000000	
48	0.60091090	0.50948022	0.50000000	
49	0.83412860	0.19944285	0.50000000	
50	0.03598084	0.73000523	0.50000000	
51	0.19791118	0.29319750	0.50000000	
52	0.77034657	0.21475036	0.50000000	
53	0.30922001	0.06066268	0.50000000	
54	0.55759011	0.41691652	0.50000000	
55	0.11594488	0.68554531	0.50000000	
56	0.95995080	0.89308836	0.50000000	
57	0.13613362	0.99780020	0.50000000	
58	0.02797335	0.14806467	0.50000000	
59	0.52297503	0.64133927	0.50000000	
60	0.98914608	0.57813295	0.50000000	
61	0.68053043	0.67497840	0.50000000	
62	0.36204645	0.91470996	0.50000000	
63	0.53036935	0.91761070	0.50000000	
64	0.28310876	0.20898862	0.50000000	
65	0.47181571	0.80657831	0.50000000	
66	0.16168943	0.51429839	0.50000000	
67	0.81311740	0.06416848	0.50000000	
68	0.47962416	0.04330951	0.50000000	
69	0.90291512	0.29450144	0.50000000	
70	0.68573011	0.06603327	0.50000000	
71	0.82121989	0.24277445	0.50000000	
72	0.31025719	0.49255407	0.50000000	
73	0.35617945	0.30799054	0.50000000	
74	0.39698167	0.07091608	0.50000000	
75	0.88651657	0.68403214	0.50000000	
76	0.52822650	0.90281945	0.50000000	
77	0.68650344	0.06331601	0.50000000	
78	0.15214040	0.02376503	0.50000000	
79	0.41894299	0.17479340	0.50000000	
80	0.75275125	0.49031640	0.50000000	
81	0.74774375	0.32927456	0.50000000	
82	0.11757709	0.11812786	0.50000000	
83	0.37498524	0.37696964	0.50000000	
84	0.72874484	0.01448099	0.50000000	
85	0.38201288	0.49049965	0.50000000	
86	0.82757659	0.07966466	0.50000000	
87	0.92396728	0.11804238	0.50000000	
88	0.93825168	0.19597347	0.50000000	
89	0.72611756	0.85786301	0.50000000	
90	0.10363771	0.83891028	0.50000000	
91	0.56511039	0.81040084	0.50000000	
92	0.40696942	0.93497714	0.50000000	
93	0.16087440	0.81605472	0.50000000	
94	0.43173964	0.24810082	0.50000000	
95	0.83052277	0.59621859	0.50000000	
96	0.64577903	0.60816895	0.50000000	
97	0.49546644	0.30438244	0.50000000	
98	0.75562733	0.82861043	0.50000000	
99	0.45555055	0.43814467	0.50000000	
100	0.89743077	0.11894443	0.50000000	
101	0.09899332	0.78074597	0.50000000	
102	0.99753316	0.53981667	0.50000000	
103	0.69884936	0.56127713	0.50000000	
104	0.38478566	0.09257627	0.50000000	
105	0.92938613	0.19264838	0.50000000	
106	0.84125480	0.96937695	0.50000000	
107	0.31844636	0.12799955	0.50000000	
108	0.28838638	0.90993509	0.50000000	
109	0.27905288	0.04181326	0.50000000	
110	0.75550717	0.80900019	0.50000000	
111	0.86624463	0.97354160	0.50000000	
112	0.31358766	0.46779574	0.50000000	
113	0.24304298	0.82344259	0.50000000	
114	0.59961586	0.74369773	0.50000000	
115	0.32766604	0.08317672	0.50000000	
116	0.95114078	0.82308128	0.50000000	
117	0.52712030	0.31080187	0.50000000	
118	0.64696427	0.52851705	0.50000000	
119	0.78609820	0.95249094	0.50000000	
120	0.51531024	0.81925430	0.50000000	
121	0.20708283	0.44117077	0.50000000	
122	0.75716967	0.75057067	0.50000000	
123	0.84133097	0.24955183	0.50000000	
124	0.21752852	0.00176163	0.50000000	
125	0.60776537	0.71249307	0.50000000	
126	0.87107894	0.22377670	0.50000000	
127	0.01497475	0.68069570	0.50000000	
128	0.45261947	0.17536077	0.50000000	
129	0.28839956	0.13139003	0.50000000	
130	0.27230618	0.65001009	0.50000000	
131	0.71964008	0.99075001	0.50000000	
132	0.53538097	0.14800200	0.50000000	
133	0.46961617	0.83889530	0.50000000	
134	0.31322653	0.39822724	0.50000000	
135	0.00527989	0.73913132	0.50000000	
136	0.58010553	0.83360194	0.50000000	
137	0.34781139	0.66605313	0.50000000	
138	0.35499733	0.44005563	0.50000000	
139	0.01491710	0.71165031	0.50000000	
140	0.70676716	0.63557722	0.50000000	
141	0.14636506	0.95758813	0.50000000	
142	0.18377341	0.67971965	0.50000000	
143	0.04812687	0.86837213	0.50000000	
144	0.73039137	0.68777136	0.50000000	
145	0.37325946	0.37167035	0.50000000	
146	0.66364524	0.88549930	0.50000000	
147	0.58674152	0.36469364	0.50000000	
148	0.40608524	0.07455677	0.50000000	
149	0.07564632	0.38766772	0.50000000	
150	0.53129827	0.53009038	0.50000000	
151	0.22901289	0.01960132	0.50000000	
152	0.43938399	0.72673340	0.50000000	
153	0.20829114	0.74922156	0.50000000	
154	0.16675047	0.57513008	0.50000000	
155	0.21124910	0.46360262	0.50000000	
156	0.76923312	0.50098577	0.50000000	
157	0.06784848	0.32947165	0.50000000	
158	0.43009570	0.61849725	0.50000000	
159	0.08320961	0.50395637	0.50000000	
160	0.99474678	0.70905354	0.50000000	
161	0.06287028	0.66077888	0.50000000	
162	0.71064334	0.78256451	0.50000000	
163	0.56176694	0.61693651	0.50000000	
164	0.85195908	0.87632633	0.50000000	
165	0.41661179	0.99439231	0.50000000	
166	0.75159778	0.10392234	0.50000000	
167	0.62270805	0.85427281	0.50000000	
168	0.76314466	0.17225644	0.50000000	
169	0.11394020	0.99288477	0.50000000	
170	0.41431428	0.38014295	0.50000000	
171	0.06250080	0.45093054	0.50000000	
172	0.78956557	0.22845822	0.50000000	
173	0.69729201	0.38687735	0.50000000	
174	0.24764869	0.23150171	0.50000000	
175	0.84928319	0.90258844	0.50000000	
176	0.80392774	0.61353385	0.50000000	
177	0.66345799	0.73846926	0.50000000	
178	0.45290242	0.93100709	0.50000000	
179	0.43613803	0.17178991	0.50000000	
180	0.27306867	0.46522017	0.50000000	
181	0.95545722	0.36952504	0.50000000	
182	0.60739771	0.53323018	0.50000000	
183	0.99967723	0.57526954	0.50000000	
184	0.55521539	0.50500035	0.50000000	
185	0.54080924	0.38089632	0.50000000	
186	0.72438448	0.72994017	0.50000000	
187	0.10447348	0.88574044	0.50000000	
188	0.63957205	0.28751907	0.50000000	
189	0.33294668	0.83482241	0.50000000	
190	0.86016955	0.86959341	0.50000000	
191	0.25649263	0.87166762	0.50000000	
192	0.11770054	0.19291401	0.50000000	
193	0.30569757	0.85909419	0.50000000	
194	0.79601801	0.67465343	0.50000000	
195	0.90022683	0.11234734	0.50000000	
196	0.22174781	0.91544476	0.50000000	
197	0.88006698	0.28578909	0.50000000	
198	0.25731964	0.77115855	0.50000000	
199	0.86176261	0.64423659	0.50000000	
200	0.68429124	0.88292793	0.50000000	
201	0.36967134	0.06624727	0.50000000	
202	0.41782006	0.30177786	0.50000000	
203	0.98046659	0.70202935	0.50000000	
204	0.00736497	0.78310843	0.50000000	
205	0.70331842	0.67268820	0.50000000	
206	0.87052238	0.86966885	0.50000000	
207	0.52443489	0.17718691	0.50000000	
208	0.98034403	0.64213679	0.50000000	
209	0.39306348	0.21791202	0.50000000	
210	0.44724630	0.86856855	0.50000000	
211	0.03164001	0.77372582	0.50000000	
212	0.00981986	0.04246712	0.50000000	
213	0.74482530	0.27884354	0.50000000	
214	0.52335157	0.96978059	0.50000000	
215	0.10232758	0.81968647	0.50000000	
216	0.47045439	0.92698607	0.50000000	
217	0.85490728	0.42660408	0.50000000	
218	0.93475265	0.38785222	0.50000000	
219	0.63223100	0.90635731	0.50000000	
220	0.14735171	0.54027150	0.50000000	
221	0.34312249	0.85970357	0.50000000	
222	0.03794918	0.81188026	0.50000000	
223	0.27148543	0.85558817	0.50000000	
224	0.87038382	0.54087790	0.50000000	
225	0.53480837	0.52433052	0.50000000	
226	0.42303929	0.02127414	0.50000000	
227	0.55445725	0.76304508	0.50000000	
228	0.49868911	0.46793703	0.50000000	
229	0.61760255	0.04605417	0.50000000	
230	0.03239644	0.48697396	0.50000000	
231	0.57133308	0.39510459	0.50000000	
232	0.52292334	0.77250272	0.50000000	
233	0.45313315	0.80889479	0.50000000	
234	0.09478508	0.05288433	0.50000000	
235	0.82693542	0.30368553	0.50000000	
236	0.04269093	0.50641316	0.50000000	
237	0.28595879	0.10935817	0.50000000	
238	0.98268695	0.01964499	0.50000000	
239	0.17341134	0.52434556	0.50000000	
240	0.67585449	0.08644453	0.50000000	
241	0.87318012	0.53825660	0.50000000	
242	0.47875924	0.50653298	0.50000000	
243	0.29984013	0.41300317	0.50000000	
244	0.34419418	0.87159154	0.50000000	
245	0.83894224	0.10217151	0.50000000	
246	0.19649880	0.55538908	0.50000000	
247	0.42433000	0.71424010	0.50000000	
248	0.23333893	0.72739351	0.50000000	
249	0.30270176	0.50848409	0.50000000	
250	0.09212384	0.32534054	0.50000000	
251	0.99845299	0.99944736	0.50000000	
252	0.71175105	0.39994736	0.50000000	
253	0.91527748	0.06858470	0.50000000	
254	0.70307885	0.64621687	0.50000000	
255	0.96696743	0.82153256	0.50000000	
256	0.49781357	0.75271928	0.50000000	
257	0.95295789	0.36320984	0.50000000	
258	0.46785265	0.19951922	0.50000000	
259	0.31960714	0.63725196	0.50000000	
260	0.29362035	0.87728466	0.50000000	
261	0.52325625	0.36777758	0.50000000	
262	0.23785919	0.69947040	0.50000000	
263	0.99900059	0.20285846	0.50000000	
264	0.44218022	0.72297729	0.50000000	
265	0.07926273	0.16865230	0.50000000	
266	0.53928218	0.71560968	0.50000000	
267	0.25190401	0.75067972	0.50000000	
268	0.67410229	0.63724140	0.50000000	
269	0.11627483	0.23100533	0.50000000	
270	0.50665531	0.35578820	0.50000000	
271	0.73225943	0.08430820	0.50000000	
272	0.96799717	0.12837423	0.50000000	
273	0.58562396	0.58195527	0.50000000	
274	0.92218681	0.19366124	0.50000000	
275	0.86453927	0.31158513	0.50000000	
276	0.81125390	0.74429875	0.50000000	
277	0.42905910	0.19634186	0.50000000	
278	0.91762872	0.58590316	0.50000000	
279	0.27447410	0.08612611	0.50000000	
280	0.52153230	0.39333767	0.50000000	
281	0.82625824	0.92227412	0.50000000	
282	0.66119940	0.77826958	0.50000000	
283	0.37676056	0.21479113	0.50000000	
284	0.99452038	0.90400586	0.50000000	
285	0.62641747	0.19841813	0.50000000	
286	0.81355440	0.40877775	0.50000000	
287	0.32768039	0.32429150	0.50000000	
288	0.36731789	0.51184747	0.50000000	
289	0.62038459	0.80385206	0.50000000	
290	0.34157667	0.87905339	0.50000000	
291	0.25029548	0.71616196	0.50000000	
292	0.53404839	0.75125761	0.50000000	
293	0.38667350	0.82155380	0.50000000	
294	0.85475080	0.79662313	0.50000000	
295	0.84488724	0.01977648	0.50000000	
296	0.38324931	0.27113009	0.50000000	
297	0.88341884	0.62039417	0.50000000	
298	0.96480134	0.41618983	0.50000000	
299	0.90250433	0.39025849	0.50000000	
300	0.07439934	0.42971523	0.50000000	
301	0.22379006	0.23957590	0.50000000	
302	0.55213983	0.81415582	0.50000000	
303	0.51684671	0.64257881	0.50000000	
304	0.82211928	0.35870231	0.50000000	
305	0.70965478	0.16789477	0.50000000	
306	0.80747772	0.27800078	0.50000000	
307	0.35904761	0.51311890	0.50000000	
308	0.98932321	0.55522903	0.50000000	
309	0.73437558	0.65030414	0.50000000	
310	0.66167921	0.84245089	0.50000000	
311	0.07213425	0.36030638	0.50000000	
312	0.66935245	0.80669403	0.50000000	
313	0.10658133	0.31234091	0.50000000	
314	0.51370948	0.91520212	0.50000000	
315	0.80195727	0.49590797	0.50000000	
316	0.72526751	0.57096680	0.50000000	
317	0.23906254	0.92413905	0.50000000	
318	0.00498651	0.80831520	0.50000000	
319	0.35359284	0.83488069	0.50000000	
320	0.83979619	0.45453529	0.50000000	
321	0.37467178	0.10868048	0.50000000	
322	0.59280742	0.31426669	0.50000000	
323	0.88030914	0.35570460	0.50000000	
324	0.32713658	0.18443835	0.50000000	
325	0.85526624	0.45963909	0.50000000	
326	0.15412069	0.30651948	0.50000000	
327	0.67292551	0.85898886	0.50000000	
328	0.02572459	0.35312660	0.50000000	
329	0.99876760	0.28710678	0.50000000	
330	0.40371413	0.22333409	0.50000000	
331	0.57605773	0.80229235	0.50000000	
332	0.12750502	0.97686832	0.50000000	
333	0.22584272	0.73854030	0.50000000	
334	0.64686201	0.80981506	0.50000000	
335	0.56167081	0.00131563	0.50000000	
336	0.11173933	0.00284964	0.50000000	
337	0.89392844	0.25527161	0.50000000	
338	0.34988652	0.54266333	0.50000000	
339	0.54261078	0.65932674	0.50000000	
340	0.30455690	0.68789397	0.50000000	
341	0.43400509	0.32359076	0.50000000	
342	0.58982177	0.13443580	0.50000000	
343	0.46249004	0.07012732	0.50000000	
344	0.62989144	0.58542593	0.50000000	
345	0.25367434	0.50471210	0.50000000	
346	0.69631797	0.01618685	0.50000000	
347	0.05236704	0.13288008	0.50000000	
348	0.31558429	0.02524010	0.50000000	
349	0.21031375	0.74323644	0.50000000	
350	0.57491944	0.67100662	0.50000000	
351	0.60821163	0.21294884	0.50000000	
352	0.03111046	0.87353956	0.50000000	
353	0.57945452	0.89204031	0.50000000	
354	0.52155130	0.71262223	0.50000000	
355	0.04186333	0.59699839	0.50000000	
356	0.75198135	0.55048704	0.50000000	
357	0.03572600	0.44695422	0.50000000	
358	0.95950974	0.48017837	0.50000000	
359	0.35780027	0.54917141	0.50000000	
360	0.92386928	0.47103775	0.50000000	
361	0.73150147	0.34515478	0.50000000	
362	0.01640520	0.72212028	0.50000000	
363	0.67558926	0.62874026	0.50000000	
364	0.23749847	0.63686737	0.50000000	
365	0.82986894	0.60728395	0.50000000	
366	0.62128730	0.97572280	0.50000000	
367	0.97308391	0.62123715	0.50000000	
368	0.13273674	0.90638522	0.50000000	
369	0.61637820	0.46837713	0.50000000	
370	0.01447632	0.30345961	0.50000000	
371	0.24572005	0.81695771	0.50000000	
372	0.60829055	0.53920537	0.50000000	
373	0.42468920	0.75143873	0.50000000	
374	0.43081026	0.62809218	0.50000000	
375	0.34526645	0.89328594	0.50000000	
376	0.45678384	0.16593146	0.50000000	
377	0.81012748	0.81253847	0.50000000	
378	0.33413664	0.83450642	0.50000000	
379	0.54935972	0.08885301	0.50000000	
380	0.35256285	0.52379714	0.50000000	
381	0.45850462	0.08721468	0.50000000	
382	0.81707136	0.51838640	0.50000000	
383	0.52024181	0.70401880	0.50000000	
384	0.44398584	0.07000584	0.50000000	
385	0.58814823	0.00725514	0.50000000	
386	0.93722010	0.85829591	0.50000000	
387	0.37942189	0.94365758	0.50000000	
388	0.05288901	0.90554348	0.50000000	
389	0.46922964	0.34254705	0.50000000	
390	0.18833820	0.40009136	0.50000000	
391	0.33542564	0.49881221	0.50000000	
392	0.53686122	0.02651156	0.50000000	
393	0.57979239	0.57072080	0.50000000	
394	0.10448558	0.08911647	0.50000000	
395	0.78053474	0.44742163	0.50000000	
396	0.81527484	0.32425380	0.50000000	
397	0.73358547	0.37099036	0.50000000	
398	0.23502517	0.06806969	0.50000000	
399	0.04729445	0.87789966	0.50000000	
400	0.85954213	0.32457826	0.50000000	
401	0.18688217	0.92870170	0.50000000	
402	0.68945084	0.60024197	0.50000000	
403	0.26681469	0.35454528	0.50000000	
404	0.84245114	0.07632136	0.50000000	
405	0.73302304	0.91819983	0.50000000	
406	0.18451461	0.13705334	0.50000000	
407	0.45550560	0.68257915	0.50000000	
408	0.10782564	0.22553440	0.50000000	
409	0.55660730	0.89887896	0.50000000	
410	0.45872586	0.80552271	0.50000000	
411	0.42021818	0.60696126	0.50000000	
412	0.19791864	0.41851332	0.50000000	
413	0.95341032	0.96716934	0.50000000	
414	0.21513237	0.72966812	0.50000000	
415	0.53208159	0.69531135	0.50000000	
416	0.09779137	0.57959556	0.50000000	
417	0.26260060	0.52835313	0.50000000	
418	0.03108317	0.41492215	0.50000000	
419	0.59660711	0.17576501	0.50000000	
420	0.08247071	0.08527712	0.50000000	
421	0.25250369	0.82953284	0.50000000	
422	0.95843758	0.46040142	0.50000000	
423	0.96671677	0.60871539	0.50000000	
424	0.67952293	0.74186153	0.50000000	
425	0.46669547	0.75081943	0.50000000	
426	0.02224004	0.78828021	0.50000000	
427	0.62548768	0.57143619	0.50000000	
428	0.12812885	0.46150303	0.50000000	
429	0.48141765	0.18644549	0.50000000	
430	0.58934392	0.10325046	0.50000000	
431	0.33043117	0.55665044	0.50000000	
432	0.62401555	0.82941069	0.50000000	
433	0.90544005	0.73089128	0.50000000	
434	0.08980921	0.42340949	0.50000000	
435	0.24333944	0.80602232	0.50000000	
436	0.81705932	0.31601997	0.50000000	
437	0.34765379	0.01720280	0.50000000	
438	0.12752469	0.30754807	0.50000000	
439	0.96046734	0.57461369	0.50000000	
440	0.53223604	0.29113020	0.50000000	
441	0.02521155	0.73043992	0.50000000	
442	0.50375645	0.63458905	0.50000000	
443	0.53816773	0.98504971	0.50000000	
444	0.73043913	0.49046727	0.50000000	
445	0.28342478	0.52033064	0.50000000	
446	0.19712570	0.09167000	0.50000000	
447	0.69776889	0.40166645	0.50000000	
448	0.80804140	0.75182859	0.50000000	
449	0.98313270	0.51124131	0.50000000	
450	0.43266668	0.82888370	0.50000000	
451	0.04838492	0.20527639	0.50000000	
452	0.08031303	0.82101252	0.50000000	
453	0.75736352	0.00860993	0.50000000	
454	0.70715709	0.18912840	0.50000000	
455	0.68094693	0.67502394	0.50000000	
456	0.12744189	0.91577700	0.50000000	
457	0.46406405	0.52456242	0.50000000	
458	0.32062596	0.76053395	0.50000000	
459	0.29414763	0.73929388	0.50000000	
460	0.31229104	0.67544272	0.50000000	
461	0.16578968	0.42710761	0.50000000	
462	0.39757791	0.09200276	0.50000000	
463	0.29043757	0.38430904	0.50000000	
464	0.08204472	0.92555016	0.50000000	
465	0.72161677	0.21307706	0.50000000	
466	0.18610124	0.80350478	0.50000000	
467	0.50492092	0.20586544	0.50000000	
468	0.98037274	0.12457767	0.50000000	
469	0.77693799	0.99678808	0.50000000	
470	0.01732846	0.23938435	0.50000000	
471	0.33276284	0.74500313	0.50000000	
472	0.26756178	0.91081210	0.50000000	
473	0.01900978	0.49740625	0.50000000	
474	0.90677495	0.16661099	0.50000000	
475	0.23093683	0.35525552	0.50000000	
476	0.77947215	0.58846875	0.50000000	
477	0.39419989	0.31756356	0.50000000	
478	0.29080001	0.47577572	0.50000000	
479	0.36253903	0.19355294	0.50000000	
480	0.04419622	0.80590312	0.50000000	
481	0.81375924	0.85146454	0.50000000	
482	0.56454217	0.26023462	0.50000000	
483	0.76329878	0.76254204	0.50000000	
484	0.04414415	0.93076634	0.50000000	
485	0.38982685	0.81994201	0.50000000	
486	0.76544062	0.76051443	0.50000000	
487	0.96604276	0.28060156	0.50000000	
488	0.07036865	0.68596209	0.50000000	
489	0.96489565	0.00113918	0.50000000	
490	0.14613235	0.04647749	0.50000000	
491	0.14721569	0.25403251	0.50000000	
492	0.52445011	0.43298396	0.50000000	
493	0.16141170	0.84648741	0.50000000	
494	0.91397527	0.18229959	0.50000000	
495	0.90929225	0.47480491	0.50000000	
496	0.04604614	0.89745418	0.50000000	
497	0.51243079	0.42436779	0.50000000	
498	0.34952997	0.55021588	0.50000000	
499	0.47821205	0.30986038	0.50000000	
500	0.82344655	0.66615565	0.50000000	
501	0.07797252	0.48411534	0.50000000	
502	0.52659833	0.53819326	0.50000000	
503	0.41408344	0.50044735	0.50000000	
504	0.01862468	0.02500669	0.50000000	
505	0.28751834	0.32076102	0.50000000	
506	0.03048627	0.38268289	0.50000000	
507	0.75133801	0.73790398	0.50000000	
508	0.95221451	0.86923309	0.50000000	
509	0.20054984	0.64119368	0.50000000	
510	0.54225521	0.68328336	0.50000000	
511	0.94336212	0.08718293	0.50000000	
512	0.28357125	0.98198205	0.50000000	
513	0.17224374	0.90047598	0.50000000	
514	0.29971316	0.27915141	0.50000000	
515	0.69779473	0.83610038	0.50000000	
516	0.33912344	0.64765832	0.50000000	
517	0.19330564	0.88782282	0.50000000	
518	0.63814057	0.22848515	0.50000000	
519	0.14995356	0.26946798	0.50000000	
520	0.94827380	0.63783190	0.50000000	
521	0.04076064	0.06400729	0.50000000	
522	0.77044035	0.79102808	0.50000000	
523	0.80897877	0.50618469	0.50000000	
524	0.44606028	0.93513475	0.50000000	
525	0.80982647	0.75351860	0.50000000	
526	0.38711638	0.26500229	0.50000000	
527	0.89353348	0.61721912	0.50000000	
528	0.60180607	0.55456378	0.50000000	
529	0.55346792	0.13540705	0.50000000	
530	0.78628494	0.09098241	0.50000000	
531	0.14142247	0.88753434	0.50000000	
532	0.78973611	0.09488161	0.50000000	
533	0.67527502	0.34734193	0.50000000	
534	0.77576592	0.29773839	0.50000000	
535	0.08919423	0.08736623	0.50000000	
536	0.36421020	0.28076432	0.50000000	
537	0.80598211	0.14135408	0.50000000	
538	0.73800505	0.65095143	0.50000000	
539	0.54076293	0.60254824	0.50000000	
540	0.02827806	0.26943723	0.50000000	
541	0.43155343	0.11844532	0.50000000	
542	0.71057335	0.60634730	0.50000000	
543	0.87912469	0.44866914	0.50000000	
544	0.78228244	0.82098289	0.50000000	
545	0.25945773	0.70606605	0.50000000	
546	0.85216436	0.32638556	0.50000000	
547	0.56207000	0.71054894	0.50000000	
548	0.19600294	0.22135456	0.50000000	
549	0.30602113	0.29721556	0.50000000	
550	0.30195813	0.01035936	0.50000000	
551	0.10979331	0.29619424	0.50000000	
552	0.13653114	0.67884293	0.50000000	
553	0.31312407	0.67619904	0.50000000	
554	0.87729254	0.65569407	0.50000000	
555	0.25022854	0.59112138	0.50000000	
556	0.97700281	0.48619208	0.50000000	
557	0.43020951	0.53117580	0.50000000	
558	0.47171613	0.13304229	0.50000000	
559	0.04183742	0.16143746	0.50000000	
560	0.27945781	0.84749092	0.50000000	
561	0.77993407	0.35189052	0.50000000	
562	0.22391302	0.30615218	0.50000000	
563	0.49971240	0.66629738	0.50000000	
564	0.46013149	0.42991921	0.50000000	
565	0.65214677	0.63074759	0.50000000	
566	0.97473801	0.42174515	0.50000000	
567	0.27072958	0.15206821	0.50000000	
568	0.81034127	0.40565591	0.50000000	
569	0.85882432	0.26034745	0.50000000	
570	0.65952631	0.65861789	0.50000000	
571	0.39084282	0.89527967	0.50000000	
572	0.96547774	0.78431989	0.50000000	
573	0.06436938	0.85617031	0.50000000	
574	0.65432369	0.21828037	0.50000000	
575	0.63821744	0.52050132	0.50000000	
576	0.06570917	0.37408254	0.50000000	
577	0.20530239	0.51722009	0.50000000	
578	0.91803561	0.42447505	0.50000000	
579	0.15222456	0.43818562	0.50000000	
580	0.58570516	0.94664710	0.50000000	
581	0.29784312	0.84929771	0.50000000	
582	0.14669290	0.46753993	0.50000000	
583	0.94353312	0.96107268	0.50000000	
584	0.74860415	0.78992400	0.50000000	
585	0.25258682	0.22665715	0.50000000	
586	0.42668796	0.34449307	0.50000000	
587	0.89501708	0.55210202	0.50000000	
588	0.17867029	0.91152506	0.50000000	
589	0.00162722	0.34870736	0.50000000	
590	0.72455891	0.66164331	0.50000000	
591	0.23914739	0.35019744	0.50000000	
592	0.76843966	0.16528300	0.50000000	
593	0.91143088	0.41874404	0.50000000	
594	0.83105540	0.54814497	0.50000000	
595	0.67246179	0.06538078	0.50000000	
596	0.85476259	0.99481028	0.50000000	
597	0.77629639	0.21335042	0.50000000	
598	0.78054001	0.53588308	0.50000000	
599	0.58689422	0.93121057	0.50000000	
600	0.85602660	0.23907483	0.50000000	
601	0.13070824	0.81336676	0.50000000	
602	0.25518922	0.96517483	0.50000000	
603	0.69334495	0.04856013	0.50000000	
604	0.15013566	0.33000881	0.50000000	
605	0.45801613	0.87710288	0.50000000	
606	0.46809996	0.35603350	0.50000000	
607	0.85504989	0.82342184	0.50000000	
608	0.25083371	0.76216912	0.50000000	
609	0.77648242	0.34004755	0.50000000	
610	0.17920551	0.90694257	0.50000000	
611	0.98379870	0.70469463	0.50000000	
612	0.80263816	0.93960945	0.50000000	
613	0.01601487	0.16186974	0.50000000	
614	0.54466075	0.11314865	0.50000000	
615	0.68931707	0.35205479	0.50000000	
616	0.98486826	0.68090217	0.50000000	
617	0.92285507	0.42523681	0.50000000	
618	0.95507680	0.97583529	0.50000000	
619	0.86367645	0.81010553	0.50000000	
620	0.44360343	0.64280357	0.50000000	
621	0.59961814	0.78214085	0.50000000	
622	0.44128140	0.61651934	0.50000000	
623	0.84058879	0.77575145	0.50000000	
624	0.05464354	0.39395671	0.50000000	
625	0.23045353	0.23246252	0.50000000	
626	0.99760306	0.71469558	0.50000000	
627	0.88852984	0.52103441	0.50000000	
628	0.02528974	0.04472211	0.50000000	
629	0.64451933	0.43634526	0.50000000	
630	0.65482164	0.58722833	0.50000000	
631	0.54659921	0.69286817	0.50000000	
632	0.03532848	0.76576279	0.50000000	
633	0.17514104	0.59554288	0.50000000	
634	0.28913026	0.41223910	0.50000000	
635	0.50256228	0.56420162	0.50000000	
636	0.53659947	0.62730940	0.50000000	
637	0.18907712	0.81911497	0.50000000	
638	0.86533141	0.62496709	0.50000000	
639	0.82189972	0.66864746	0.50000000	
640	0.95792316	0.81453304	0.50000000	
641	0.85677713	0.85323331	0.50000000	
642	0.29228577	0.44701993	0.50000000	
643	0.06396697	0.09284113	0.50000000	
644	0.38086844	0.25578845	0.50000000	
645	0.03641289	0.99141237	0.50000000	
646	0.66774166	0.73399924	0.50000000	
647	0.32519686	0.58359545	0.50000000	
648	0.48876463	0.66716649	0.50000000	
649	0.06714185	0.45310500	0.50000000	
650	0.33580642	0.89856740	0.50000000	
651	0.22236828	0.34376092	0.50000000	
652	0.58971844	0.39779577	0.50000000	
653	0.75345223	0.27155353	0.50000000	
654	0.00021815	0.66651312	0.50000000	
655	0.08606489	0.49255257	0.50000000	
656	0.33110376	0.86091733	0.50000000	
657	0.43752936	0.55589339	0.50000000	
658	0.90028790	0.13879915	0.50000000	
659	0.79727615	0.82026660	0.50000000	
660	0.22081914	0.30727741	0.50000000	
661	0.41148413	0.81370893	0.50000000	
662	0.00597404	0.40575127	0.50000000	
663	0.46167257	0.33089695	0.50000000	
664	0.38511717	0.66428594	0.50000000	
665	0.65383207	0.95559885	0.50000000	
666	0.74992308	0.95719924	0.50000000	
667	0.64758112	0.89595188	0.50000000	
668	0.26329569	0.21069626	0.50000000	
669	0.17206660	0.92330946	0.50000000	
670	0.06202793	0.50337778	0.50000000	
671	0.27031079	0.11345432	0.50000000	
672	0.82672586	0.78156109	0.50000000	
673	0.69727949	0.17644976	0.50000000	
674	0.59113888	0.27120385	0.50000000	
675	0.12318617	0.38987614	0.50000000	
676	0.64828494	0.72493769	0.50000000	
677	0.02781555	0.49600553	0.50000000	
678	0.36500926	0.71064962	0.50000000	
679	0.88814223	0.00652899	0.50000000	
680	0.73273292	0.04223873	0.50000000	
681	0.90635902	0.17603536	0.50000000	
682	0.62626505	0.63662834	0.50000000	
683	0.81243707	0.62987430	0.50000000	
684	0.29729815	0.69000385	0.50000000	
685	0.89477549	0.49171121	0.50000000	
686	0.19034152	0.06992237	0.50000000	
687	0.18533415	0.91103279	0.50000000	
688	0.72805922	0.49134969	0.50000000	
689	0.11425366	0.26118176	0.50000000	
690	0.68178949	0.83596257	0.50000000	
691	0.02285467	0.11849283	0.50000000	
692	0.50896476	0.17072915	0.50000000	
693	0.44485777	0.72457705	0.50000000	
694	0.96647257	0.50445778	0.50000000	
695	0.42189162	0.73242794	0.50000000	
696	0.91641297	0.15277917	0.50000000	
697	0.75950098	0.93291271	0.50000000	
698	0.46385590	0.02606579	0.50000000	
699	0.08779693	0.60303826	0.50000000	
700	0.26407601	0.32542932	0.50000000	
701	0.49057377	0.07337022	0.50000000	
702	0.13324350	0.42354896	0.50000000	
703	0.58739182	0.29433571	0.50000000	
704	0.90029399	0.24108197	0.50000000	
705	0.86462939	0.82622237	0.50000000	
706	0.31939325	0.04230315	0.50000000	
707	0.98909025	0.63979824	0.50000000	
708	0.08895880	0.13047915	0.50000000	
709	0.96312962	0.31954767	0.50000000	
710	0.63768373	0.55039428	0.50000000	
711	0.47674455	0.64570725	0.50000000	
712	0.40174978	0.20849974	0.50000000	
713	0.25517672	0.75509160	0.50000000	
714	0.82449782	0.33489645	0.50000000	
715	0.60464444	0.25905495	0.50000000	
716	0.93657753	0.05846983	0.50000000	
717	0.70250506	0.00261163	0.50000000	
718	0.89364415	0.47715578	0.50000000	
719	0.55715829	0.15938343	0.50000000	
720	0.75731953	0.26937805	0.50000000	
721	0.43691581	0.24402579	0.50000000	
722	0.34138623	0.67838142	0.50000000	
723	0.55645645	0.36359708	0.50000000	
724	0.97609697	0.26184553	0.50000000	
725	0.83783277	0.45530673	0.50000000	
726	0.34014033	0.73849219	0.50000000	
727	0.83816328	0.01016622	0.50000000	
728	0.86372840	0.68318398	0.50000000	
729	0.27309753	0.95012636	0.50000000	
730	0.77373500	0.16407760	0.50000000	
731	0.65227142	0.72572577	0.50000000	
732	0.27294375	0.36560096	0.50000000	
733	0.65534311	0.35171317	0.50000000	
734	0.24325594	0.40261343	0.50000000	
735	0.72396507	0.68085460	0.50000000	
736	0.12329754	0.26172453	0.50000000	
737	0.80415071	0.36105772	0.50000000	
738	0.29716795	0.50171188	0.50000000	
739	0.27152172	0.46559887	0.50000000	
740	0.32020506	0.68650574	0.50000000	
741	0.10204088	0.00111614	0.50000000	
742	0.75889926	0.81979574	0.50000000	
743	0.30708412	0.16280520	0.50000000	
744	0.26707743	0.77036282	0.50000000	
745	0.48789064	0.97802620	0.50000000	
746	0.68640728	0.44719423	0.50000000	
747	0.99350220	0.79154773	0.50000000	
748	0.54265119	0.33856950	0.50000000	
749	0.33765206	0.91820196	0.50000000	
750	0.22030460	0.65935852	0.50000000	
751	0.83864400	0.08963244	0.50000000	
752	0.45240233	0.52589348	0.50000000	
753	0.69163725	0.34722920	0.50000000	
754	0.88118975	0.15613585	0.50000000	
755	0.17521854	0.89803073	0.50000000	
756	0.20244641	0.51677476	0.50000000	
757	0.43346737	0.28615346	0.50000000	
758	0.38126575	0.93347366	0.50000000	
759	0.89185249	0.36486352	0.50000000	
760	0.26115257	0.19120919	0.50000000	
761	0.65278839	0.41444352	0.50000000	
762	0.55227347	0.06022205	0.50000000	
763	0.15205255	0.54717960	0.50000000	
764	0.44752959	0.62986551	0.50000000	
765	0.14966152	0.36116832	0.50000000	
766	0.15597761	0.51562261	0.50000000	
767	0.06917498	0.62383148	0.50000000	
768	0.73569388	0.80701378	0.50000000	
769	0.48065952	0.44456066	0.50000000	
770	0.73106389	0.99073907	0.50000000	
771	0.35150043	0.66766958	0.50000000	
772	0.52257119	0.85404575	0.50000000	
773	0.94698353	0.95214446	0.50000000	
774	0.69202193	0.81260850	0.50000000	
775	0.51105040	0.22401181	0.50000000	
776	0.96650077	0.97839140	0.50000000	
777	0.82419042	0.16831878	0.50000000	
778	0.93380173	0.40560790	0.50000000	
779	0.05198826	0.76669219	0.50000000	
780	0.79565058	0.49921764	0.50000000	
781	0.35080352	0.95484274	0.50000000	
782	0.04190295	0.26292850	0.50000000	
783	0.03929887	0.49614197	0.50000000	
784	0.65815111	0.54565114	0.50000000	
785	0.75875602	0.41248282	0.50000000	
786	0.59882916	0.52175123	0.50000000	
787	0.07299910	0.89580721	0.50000000	
788	0.83176799	0.52452479	0.50000000	