ITEM: TIMESTEP
200000
ITEM: NUMBER OF ATOMS
17280
ITEM: BOX BOUNDS pp pp pp
-6.7733769532438743e+01 6.7733769532438743e+01
-7.0390998130998881e+01 7.0390998130998881e+01
-5.0102081410795951e-01 5.0102081410795951e-01
ITEM: ATOMS id x y z
14778 -66.4212 -69.5988 0
14585 -67.4615 -69.1253 0
281 -45.4083 -55.8892 0
14614 -65.4326 -70.0814 0
14695 -64.2877 -68.893 0
14806 -65.3896 -68.8248 0
87 -63.6984 -69.8754 0
441 -63.0895 -69.063 0
247 -62.0016 -69.2478 0
92 -60.8799 -69.2762 0
14994 -67.5612 -60.4298 0
2841 -59.8729 -69.5618 0
14567 -59.1258 -68.7771 0
14734 -58.8143 -69.9246 0
243 -57.9995 -69.0418 0
14549 -57.7063 -70.1349 0
14698 -56.9353 -69.2378 0
2859 -55.8272 -69.2215 0
365 -54.7953 -69.4894 0
14742 -53.7554 -69.8587 0
8 -52.8307 -69.0103 0
206 -51.9849 -69.8383 0
2821 -50.5384 -69.0146 0
19 -50.7727 -70.0736 0
101 -49.4263 -69.0431 0
103 -48.997 -69.9901 0
2704 -48.1326 -69.3643 0
48 -47.0379 -69.6848 0
108 -45.9145 -70.0876 0
14666 -46.1259 -69.0251 0
14662 -60.7412 -70.2651 0
12 -66.5411 -68.4969 0
14736 -66.7668 -67.3998 0
2697 -65.7499 -67.7273 0
14510 -64.6464 -67.8309 0
14688 -63.4103 -68.0046 0
14587 -62.3085 -68.2121 0
14775 -62.8112 -67.1044 0
242 -61.2576 -68.1947 0
14504 -61.6524 -67.2636 0
14814 -60.5363 -67.3798 0
14817 -60.1523 -68.5249 0
14706 -59.3553 -67.613 0
2857 -58.3624 -67.9938 0
14781 -57.2224 -68.1311 0
282 -57.614 -67.0648 0
14699 -56.0372 -68.2218 0
167 -55.3169 -67.3497 0
204 -56.4713 -67.167 0
2844 -53.9207 -68.7076 0
213 -55.0457 -68.4202 0
2777 -54.242 -67.5997 0
161 -53.1915 -67.7412 0
209 -52.1124 -67.8656 0
2854 -51.6567 -68.8442 0
293 -50.9604 -67.8571 0
52 -48.7431 -68.2176 0
49 -49.9369 -68.0059 0
169 -50.2406 -67.0242 0
13 -49.1561 -67.159 0
130 -47.2757 -68.6148 0
138 -47.8663 -67.4712 0
14667 -46.7513 -67.6028 0
187 -45.669 -67.6808 0
14784 -67.3625 -70.2616 0
590 -46.3895 -47.8597 0
14773 -66.2755 -66.4865 0
14655 -66.6396 -65.4497 0
17190 -65.5259 -65.7763 0
14939 -65.0595 -66.74 0
14627 -64.3105 -65.947 0
2814 -63.9393 -66.972 0
14730 -63.2205 -66.0921 0
14732 -62.0602 -66.2547 0
126 -60.9312 -66.3447 0
14819 -59.7705 -66.694 0
14857 -60.21 -65.5829 0
241 -59.1725 -65.7892 0
330 -58.6858 -66.7908 0
121 -58.0039 -65.9279 0
166 -56.9145 -66.1597 0
122 -55.8084 -66.2934 0
173 -56.2402 -65.2489 0
14812 -54.6475 -66.5056 0
171 -54.0163 -65.6053 0
86 -55.0958 -65.4045 0
14937 -53.5516 -66.7213 0
2858 -52.4055 -66.77 0
254 -52.8732 -65.6558 0
2740 -51.3234 -66.8719 0
170 -51.7657 -65.8677 0
14701 -50.635 -66.0318 0
60 -49.5055 -66.19 0
33 -48.3453 -66.3726 0
90 -48.8162 -65.3743 0
7 -47.189 -66.5258 0
2662 -47.6013 -65.5775 0
2808 -46.5601 -65.6774 0
2855 -45.9933 -66.6186 0
175 -45.3466 -65.7141 0
14896 -67.0651 -64.4426 0
14925 -65.8419 -64.7003 0
14858 -64.7139 -64.9511 0
14850 -65.2208 -63.7455 0
404 -64.0766 -64.0278 0
14956 -63.6059 -65.0935 0
14731 -62.8156 -64.233 0
14660 -62.4744 -65.2853 0
14813 -61.4026 -65.4424 0
14665 -61.732 -64.3573 0
367 -60.6059 -64.6279 0
14822 -59.5235 -64.702 0
14804 -58.4054 -64.9162 0
14811 -57.7567 -64.0131 0
14569 -57.3136 -65.0035 0
326 -58.8696 -63.7875 0
291 -56.5961 -64.1128 0
260 -55.5156 -64.417 0
14661 -54.434 -64.5101 0
325 -53.3412 -64.6477 0
74 -52.2558 -64.7407 0
125 -52.6749 -63.7466 0
219 -53.7802 -63.6062 0
16 -50.9742 -64.9831 0
245 -51.5086 -63.9834 0
322 -50.3545 -64.0327 0
53 -49.9183 -65.2061 0
2848 -49.186 -64.2939 0
2806 -48.0806 -64.4486 0
174 -47.0593 -64.6335 0
2849 -47.461 -63.572 0
14500 -67.5206 -68.1439 0
131 -45.8645 -64.7446 0
185 -46.3812 -63.7463 0
14852 -67.4484 -63.4147 0
14703 -66.3404 -63.6222 0
14895 -66.733 -62.5583 0
14893 -65.6755 -62.7606 0
15015 -64.4771 -63.0105 0
14856 -63.3403 -63.2242 0
415 -62.6344 -62.334 0
14973 -63.743 -62.222 0
203 -62.2376 -63.3221 0
14733 -61.0896 -63.3807 0
455 -61.5002 -62.4192 0
283 -60.0802 -63.6966 0
14700 -60.4498 -62.5561 0
14931 -59.3427 -62.7522 0
14783 -58.1935 -62.8773 0
14957 -57.5262 -62.0438 0
14898 -57.0913 -63.0865 0
288 -55.8806 -63.2861 0
165 -56.434 -62.1627 0
262 -54.8351 -63.4934 0
168 -54.1816 -62.6338 0
368 -55.3396 -62.4014 0
249 -53.104 -62.7734 0
172 -51.8467 -62.9406 0
134 -50.7716 -63.0814 0
229 -51.1674 -62.0717 0
98 -49.6089 -63.2409 0
250 -48.9882 -62.2525 0
95 -50.0517 -62.1827 0
2862 -48.543 -63.2904 0
133 -47.8131 -62.4498 0
331 -46.6923 -62.6885 0
345 -45.6568 -62.8373 0
14769 -67.1031 -61.4462 0
14720 -65.9972 -61.7159 0
14848 -66.3606 -60.6862 0
14901 -64.9411 -61.9481 0
14807 -65.2731 -60.9047 0
14953 -64.1919 -61.0081 0
14954 -63.1239 -61.3338 0
14838 -61.9605 -61.4078 0
14772 -60.8123 -61.526 0
362 -61.308 -60.4443 0
14975 -59.7395 -61.739 0
363 -60.1476 -60.5958 0
402 -59.0207 -60.7471 0
14653 -58.6164 -61.8825 0
14899 -57.9932 -60.9576 0
14859 -56.8378 -61.2206 0
361 -55.7108 -61.3111 0
323 -56.0763 -60.2627 0
485 -54.5827 -61.5967 0
411 -53.8861 -60.6647 0
14815 -54.9869 -60.4588 0
217 -53.4301 -61.739 0
91 -52.7992 -60.8245 0
5 -52.3623 -61.9419 0
296 -51.7234 -61.1115 0
93 -50.5701 -61.1056 0
132 -49.3548 -61.2497 0
15 -48.6928 -60.3493 0
284 -48.281 -61.3676 0
137 -47.1164 -61.5985 0
252 -47.5674 -60.4547 0
149 -46.0374 -61.7651 0
342 -46.4263 -60.6029 0
297 -45.3848 -60.8331 0
3291 -45.7011 -46.9972 0
14846 -66.8015 -59.5839 0
14990 -66.1919 -58.7266 0
447 -65.7441 -59.6993 0
14882 -64.7095 -59.9503 0
14845 -65.0477 -58.9353 0
14705 -63.5597 -60.2016 0
15011 -63.9512 -59.2313 0
609 -62.7988 -59.2571 0
14831 -62.4751 -60.3847 0
14823 -61.6948 -59.4685 0
14770 -60.5979 -59.5172 0
14738 -59.4338 -59.6942 0
14958 -59.8777 -58.6373 0
14862 -58.3273 -59.8947 0
14900 -57.6323 -59.0187 0
14978 -58.7039 -58.8496 0
504 -57.1953 -60.1573 0
366 -56.5065 -59.2419 0
14935 -55.3517 -59.3507 0
324 -54.2147 -59.624 0
369 -53.0651 -59.7458 0
246 -52.3735 -58.7633 0
449 -53.5714 -58.7456 0
207 -51.9606 -60.0208 0
215 -50.8575 -60.0578 0
328 -51.2813 -59.0271 0
285 -50.1751 -59.1572 0
403 -49.8004 -60.1496 0
343 -49.1435 -59.3644 0
211 -48.0849 -59.4537 0
251 -46.9779 -59.5643 0
96 -47.4845 -58.5579 0
3522 -48.7053 -47.5549 0
128 -45.8018 -59.57 0
232 -46.2787 -58.6017 0
15005 -67.5976 -57.2595 0
15017 -67.3121 -58.4397 0
14816 -66.5692 -57.6278 0
14892 -65.4537 -57.8778 0
535 -64.3706 -57.9617 0
450 -63.2442 -58.1963 0
15016 -63.6772 -57.113 0
14928 -62.5382 -57.3267 0
526 -62.1248 -58.4662 0
14818 -61.3728 -57.4819 0
390 -61.0024 -58.5219 0
412 -60.3055 -57.6513 0
14940 -59.0944 -57.9055 0
14777 -58.01 -57.9897 0
508 -58.4817 -56.9889 0
301 -57.3855 -57.1314 0
442 -56.8985 -58.2119 0
290 -55.8212 -58.3883 0
677 -56.3105 -57.3325 0
15018 -54.6901 -58.5131 0
454 -55.036 -57.4663 0
663 -54.0436 -57.6928 0
444 -52.9693 -57.8114 0
623 -52.2003 -56.8393 0
14952 -51.7695 -57.8571 0
334 -50.6774 -58.1614 0
501 -51.1265 -56.9826 0
453 -49.622 -58.2393 0
336 -49.0375 -57.3195 0
401 -50.1023 -57.2433 0
205 -48.5661 -58.4306 0
374 -47.9384 -57.5421 0
148 -46.83 -57.7317 0
294 -45.4871 -57.8217 0
329 -46.1103 -56.8636 0
14853 -66.8909 -56.4621 0
14976 -66.2233 -55.5494 0
14835 -67.3315 -55.4273 0
573 -65.8147 -56.8112 0
408 -64.7783 -56.9171 0
15046 -65.1525 -55.8383 0
14926 -64.0643 -56.019 0
15093 -63.0522 -56.3298 0
15053 -61.8595 -56.4589 0
531 -61.216 -55.5915 0
15079 -62.2976 -55.441 0
15056 -60.6968 -56.641 0
14861 -59.5653 -56.8127 0
505 -60.1188 -55.6121 0
14938 -58.9594 -55.7858 0
487 -57.7061 -56.1436 0
522 -56.5807 -56.1749 0
457 -55.9496 -55.2512 0
488 -55.516 -56.492 0
511 -54.4321 -56.5556 0
543 -54.9128 -55.4864 0
621 -53.8276 -55.7141 0
544 -53.3136 -56.8183 0
679 -52.6941 -55.8545 0
464 -51.5271 -55.9621 0
556 -50.8838 -55.0852 0
416 -50.4335 -56.0806 0
373 -49.3958 -56.2907 0
423 -49.8551 -55.2064 0
547 -48.6865 -55.3875 0
212 -48.3094 -56.4854 0
635 -47.5757 -55.5752 0
332 -47.1597 -56.6549 0
371 -46.5176 -55.742 0
641 -66.6244 -54.5467 0
503 -65.499 -54.8019 0
603 -64.7524 -53.9305 0
524 -64.4454 -54.9514 0
14922 -65.825 -53.7262 0
15049 -63.3607 -55.1964 0
448 -63.708 -54.0856 0
14847 -62.6105 -54.3716 0
483 -61.5397 -54.5652 0
413 -60.8039 -53.5458 0
414 -60.4702 -54.5975 0
376 -59.3296 -54.728 0
532 -59.6861 -53.7573 0
406 -58.1799 -54.9474 0
452 -58.5908 -53.9767 0
407 -57.5475 -54.0844 0
427 -57.0347 -55.1522 0
425 -56.4427 -54.2771 0
502 -55.2649 -54.4186 0
520 -54.1301 -54.5413 0
372 -54.631 -53.4793 0
377 -53.1334 -54.7952 0
625 -52.4418 -53.9898 0
701 -53.4812 -53.6789 0
582 -51.9572 -55.0199 0
599 -51.3206 -54.0523 0
552 -50.2511 -54.1283 0
631 -49.097 -54.2765 0
344 -47.9132 -54.4808 0
430 -47.1805 -53.5172 0
287 -46.7534 -54.5365 0
327 -45.7136 -54.7565 0
248 -45.9772 -53.6799 0
14972 -67.4566 -52.483 0
14897 -67.0135 -53.5687 0
14946 -66.3493 -52.7772 0
15133 -65.1911 -52.8568 0
15116 -64.0621 -53.0533 0
15134 -63.004 -53.2732 0
15092 -63.4492 -52.1495 0
14929 -62.3369 -52.2694 0
14768 -61.9472 -53.3908 0
15012 -61.263 -52.4668 0
490 -60.1703 -52.6984 0
481 -58.9917 -52.8638 0
15207 -57.9333 -53.1158 0
541 -58.2927 -51.9721 0
491 -57.1918 -52.1546 0
424 -56.8308 -53.2567 0
484 -56.132 -52.3337 0
629 -55.733 -53.4081 0
482 -55.1027 -52.5432 0
492 -53.9339 -52.6509 0
659 -52.7407 -52.8948 0
584 -53.2118 -51.8615 0
458 -51.6958 -52.9246 0
597 -50.6021 -53.1015 0
618 -51.0346 -52.0893 0
418 -52.1362 -51.8625 0
459 -49.4854 -53.24 0
298 -49.8858 -52.2285 0
589 -48.7561 -52.4344 0
420 -48.2855 -53.4635 0
337 -47.5861 -52.4749 0
289 -45.245 -52.8643 0
216 -46.4533 -52.6393 0
341 -45.7247 -51.6708 0
14873 -66.688 -51.6929 0
565 -67.1686 -50.6791 0
15042 -66.058 -50.829 0
15248 -64.595 -52.0003 0
15320 -65.6321 -51.9643 0
15054 -65.0271 -50.9629 0
15130 -63.9021 -51.0911 0
15077 -62.76 -51.269 0
564 -63.3249 -50.1723 0
14919 -61.6339 -51.3257 0
15095 -60.947 -50.512 0
506 -62.1289 -50.3765 0
15210 -59.5023 -51.8072 0
15055 -60.6189 -51.5654 0
521 -59.8843 -50.7539 0
15003 -58.8127 -50.9109 0
571 -57.61 -51.0782 0
628 -56.4857 -51.329 0
684 -55.7922 -50.4402 0
461 -56.8676 -50.2055 0
538 -54.3042 -51.6259 0
729 -55.3768 -51.4893 0
626 -54.6942 -50.5194 0
676 -53.6324 -50.7774 0
624 -52.5688 -50.8649 0
473 -51.4512 -51.0598 0
560 -50.7294 -50.1983 0
559 -50.3058 -51.1781 0
593 -49.2695 -51.3873 0
627 -49.6141 -50.3117 0
451 -48.1367 -51.5332 0
588 -47.382 -50.5976 0
585 -48.5306 -50.3834 0
375 -46.8757 -51.5546 0
3286 -46.1847 -50.6734 0
2812 -62.6216 -70.2084 0
15086 -66.6996 -49.7458 0
15087 -66.9324 -48.6532 0
15155 -65.5152 -49.8243 0
15111 -64.7786 -49.0438 0
14948 -65.906 -48.8136 0
723 -64.3613 -50.0744 0
610 -63.6683 -49.1741 0
802 -62.5186 -49.3534 0
613 -61.442 -49.5142 0
622 -60.2784 -49.6318 0
721 -59.6067 -48.7792 0
15208 -60.6961 -48.6825 0
15211 -59.1636 -49.8155 0
15251 -58.0409 -49.9454 0
528 -58.5327 -48.9387 0
583 -57.3246 -49.1981 0
658 -56.2086 -49.3322 0
693 -55.1391 -49.5155 0
530 -54.0107 -49.6472 0
542 -54.468 -48.611 0
577 -55.6096 -48.4131 0
645 -52.9761 -49.8379 0
581 -52.2007 -48.9782 0
587 -53.3438 -48.7732 0
548 -51.9035 -50.0252 0
669 -51.0988 -49.156 0
438 -50.0244 -49.3065 0
554 -48.9453 -49.3928 0
558 -48.2798 -48.5439 0
545 -47.7501 -49.4962 0
3281 -47.1385 -48.6714 0
546 -46.7107 -49.7069 0
515 -45.8501 -48.8037 0
436 -45.5083 -49.7751 0
14964 -67.3081 -47.4945 0
15038 -66.2314 -47.7289 0
762 -65.2004 -47.9435 0
644 -64.4101 -47.1695 0
14911 -64.1214 -48.1913 0
15089 -62.9143 -48.3875 0
601 -63.3167 -47.399 0
523 -61.8252 -48.5515 0
15132 -62.2353 -47.5624 0
486 -61.0569 -47.6163 0
387 -45.2468 -47.9106 0
15013 -59.9808 -47.8021 0
15043 -58.9553 -47.9392 0
409 -57.7969 -48.1327 0
15039 -58.1874 -47.0088 0
534 -57.1379 -47.2256 0
695 -56.7147 -48.2627 0
616 -56.1177 -47.3683 0
14979 -54.9829 -47.5987 0
14623 -67.4434 -66.4052 0
566 -53.7562 -47.6617 0
3481 -52.6727 -47.9053 0
3406 -50.8858 -47.2006 0
578 -51.485 -48.1263 0
636 -51.9759 -47.1194 0
594 -50.4429 -48.3404 0
633 -49.4084 -48.3856 0
549 -49.8555 -47.4183 0
474 -47.5515 -47.6473 0
2715 -56.5131 -70.3021 0
177 -45.1848 -63.829 0
15010 -67.0476 -45.6428 0
995 -56.7642 -23.6542 0
595 -46.8254 -46.9145 0
761 -65.8588 -45.8569 0
533 -64.7449 -46.0562 0
760 -47.1539 -24.1361 0
15325 -63.7198 -46.3667 0
688 -62.9937 -45.3037 0
15052 -62.6597 -46.4876 0
604 -61.5611 -46.6082 0
14977 -61.881 -45.5752 0
15004 -60.7667 -45.7351 0
527 -59.677 -45.8876 0
886 -60.401 -46.7866 0
741 -58.5604 -45.9994 0
569 -57.5399 -46.1635 0
14932 -56.4548 -46.3353 0
608 -55.8141 -45.3901 0
602 -56.8407 -45.2724 0
494 -54.1992 -46.6434 0
15135 -54.6661 -45.6127 0
647 -55.2758 -46.5697 0
15286 -53.5832 -45.7222 0
703 -52.488 -45.9406 0
592 -51.2445 -46.1332 0
638 -51.7106 -45.1374 0
3402 -50.5528 -45.2681 0
512 -50.1767 -46.3587 0
732 -49.1009 -46.5161 0
480 -49.5065 -45.469 0
3484 -48.407 -45.6194 0
551 -47.9587 -46.5866 0
3453 -47.1902 -45.8245 0
3449 -46.1727 -45.984 0
727 -67.4829 -44.5461 0
14921 -66.3349 -44.8356 0
724 -66.6906 -43.673 0
804 -65.1394 -44.9634 0
15252 -65.5782 -43.9279 0
580 -64.5231 -44.0448 0
607 -64.1154 -45.2358 0
777 -63.4587 -44.304 0
691 -62.2598 -44.5124 0
685 -61.217 -44.617 0
15006 -60.0738 -44.8681 0
15326 -59.4159 -43.8533 0
655 -60.552 -43.7475 0
507 -58.9883 -44.9755 0
772 -58.3997 -44.0814 0
456 -57.9147 -45.1181 0
649 -57.3341 -44.1485 0
648 -56.2334 -44.3648 0
586 -55.1132 -44.4978 0
654 -53.9795 -44.7123 0
489 -54.3919 -43.6841 0
563 -55.4664 -43.4336 0
510 -53.2193 -43.9225 0
709 -52.8025 -44.9573 0
697 -52.1205 -44.1023 0
704 -50.9886 -44.25 0
440 -49.8976 -44.4641 0
596 -48.7726 -44.5235 0
665 -49.2259 -43.5169 0
3401 -47.6427 -44.7645 0
598 -48.0824 -43.6389 0
3382 -47.0325 -43.7462 0
3325 -45.527 -45.0875 0
388 -46.5895 -44.9697 0
3452 -46.0149 -44.0658 0
14969 -67.1015 -42.6605 0
3647 -45.4733 -31.2615 0
15050 -65.9216 -42.835 0
764 -64.9164 -43.0083 0
15291 -64.8208 -41.869 0
15174 -63.8444 -43.1226 0
15366 -63.6853 -41.998 0
689 -62.73 -43.4352 0
15328 -62.5927 -41.3137 0
734 -62.0138 -42.5948 0
568 -61.6572 -43.5995 0
728 -60.9946 -42.7052 0
931 -59.9233 -42.8523 0
612 -59.2597 -41.8584 0
576 -58.79 -42.9581 0
567 -57.6857 -43.108 0
674 -58.1187 -42.0977 0
15057 -57.0244 -42.3146 0
646 -56.6044 -43.2708 0
682 -55.8891 -42.401 0
443 -54.8144 -42.5774 0
737 -54.1297 -41.7633 0
446 -53.6959 -42.8127 0
653 -52.5859 -43.0254 0
650 -52.9601 -41.9452 0
673 -51.3787 -43.2342 0
634 -50.7035 -42.3348 0
3570 -51.8558 -42.2078 0
3482 -50.3254 -43.3901 0
3446 -49.6634 -42.4933 0
3447 -48.4481 -42.5449 0
600 -47.3999 -42.7616 0
3486 -47.741 -41.7474 0
499 -46.2809 -42.9951 0
637 -45.5169 -42.0812 0
3663 -46.562 -41.8996 0
575 -53.0816 -46.8241 0
850 -66.0925 -41.7517 0
926 -67.4002 -41.6578 0
611 -66.6912 -40.7771 0
811 -65.4726 -40.8947 0
15170 -64.2194 -40.9258 0
847 -61.9001 -40.3126 0
15212 -63.2208 -40.3846 0
652 -61.5155 -41.6232 0
851 -60.8514 -40.6186 0
735 -60.4388 -41.8203 0
780 -59.7161 -40.8652 0
698 -58.4891 -41.073 0
651 -57.4296 -41.2488 0
743 -57.8063 -40.247 0
15367 -56.3432 -41.4439 0
975 -56.7206 -40.2724 0
3527 -55.5874 -40.5442 0
572 -55.2078 -41.5762 0
773 -54.4292 -40.7388 0
15173 -53.349 -40.9781 0
681 -52.1274 -41.1471 0
605 -51.069 -41.3096 0
3442 -50.3316 -40.4322 0
620 -51.4126 -40.276 0
537 -49.9908 -41.4231 0
3521 -49.164 -40.6002 0
3285 -48.8261 -41.6423 0
3407 -48.0036 -40.7349 0
3364 -47.0252 -40.9394 0
3404 -45.9338 -40.9543 0
15327 -67.0645 -39.64 0
15364 -66.4303 -38.8014 0
897 -67.5544 -38.6367 0
15329 -65.9679 -39.9275 0
775 -64.7732 -40.0124 0
921 -65.3374 -39.067 0
540 -63.875 -39.4578 0
690 -62.4373 -39.3504 0
815 -61.1249 -39.5979 0
934 -61.4905 -38.5974 0
661 -60.066 -39.7986 0
806 -60.3901 -38.8179 0
619 -59.2809 -38.971 0
818 -58.9756 -40.0309 0
776 -58.2263 -39.2602 0
699 -57.1621 -39.2371 0
770 -55.9891 -39.4764 0
821 -54.8996 -39.7092 0
574 -54.0832 -38.8275 0
539 -55.2186 -38.6836 0
570 -53.6694 -39.8068 0
675 -52.6042 -40.0447 0
617 -52.9853 -39.0315 0
614 -51.7574 -39.1858 0
632 -50.7032 -39.3919 0
3487 -49.5888 -39.5174 0
3483 -48.5734 -39.6983 0
3496 -48.949 -38.633 0
3363 -47.4269 -39.8144 0
3490 -47.8759 -38.7389 0
3649 -46.7363 -38.9223 0
3492 -46.2909 -39.9217 0
439 -45.6128 -39.0508 0
15281 -65.4982 -46.8914 0
767 -66.8991 -37.8132 0
1085 -66.1248 -36.9424 0
15404 -65.7814 -37.9848 0
766 -65.0446 -37.1181 0
739 -64.6483 -38.0967 0
702 -63.4007 -38.3615 0
807 -62.9428 -37.3461 0
963 -63.9717 -37.2312 0
970 -61.8601 -37.5706 0
687 -60.7699 -37.7293 0
740 -59.7131 -37.835 0
810 -60.0589 -36.8202 0
853 -58.533 -38.1214 0
736 -57.8147 -37.2201 0
781 -58.9479 -37.0595 0
525 -57.4271 -38.2265 0
713 -56.368 -38.4981 0
717 -56.6684 -37.3853 0
749 -55.6054 -37.64 0
3523 -54.4366 -37.7551 0
662 -53.341 -37.9472 0
615 -52.6844 -37.1075 0
579 -52.2676 -38.1806 0
793 -51.1896 -38.318 0
678 -51.5944 -37.3504 0
715 -50.4516 -37.4373 0
3292 -50.0423 -38.4961 0
3611 -49.3615 -37.6101 0
3525 -48.2887 -37.7423 0
3409 -47.1601 -37.9181 0
3567 -47.5112 -36.8294 0
3582 -46.0687 -38.0245 0
3548 -45.3569 -37.0938 0
3489 -46.4345 -37.0079 0
15279 -66.6002 -46.6312 0
15274 -67.1851 -36.7216 0
882 -66.574 -35.7817 0
895 -65.4836 -36.0597 0
962 -64.4512 -36.2039 0
855 -63.3426 -36.3752 0
15396 -63.6832 -35.3124 0
15321 -62.5697 -35.528 0
881 -62.2128 -36.5604 0
1046 -61.4391 -35.6545 0
561 -61.0884 -36.7202 0
683 -60.3376 -35.7427 0
778 -59.2946 -35.9461 0
700 -58.1923 -36.2545 0
798 -57.4687 -35.4441 0
656 -57.0717 -36.3953 0
719 -55.9279 -36.5686 0
1048 -56.3803 -35.4799 0
863 -54.8863 -36.7683 0
791 -55.3839 -35.6616 0
733 -54.2571 -35.8247 0
630 -53.8403 -36.906 0
706 -53.1365 -36.0498 0
771 -51.9569 -36.2488 0
714 -50.8734 -36.4369 0
812 -51.2695 -35.2724 0
3458 -49.8153 -36.5438 0
716 -49.1977 -35.6605 0
3568 -50.245 -35.5553 0
3450 -48.7158 -36.684 0
680 -48.0364 -35.7737 0
3334 -46.8203 -35.9932 0
913 -46.6596 -25.1618 0
3413 -45.7896 -36.0361 0
15642 -67.005 -34.7387 0
15564 -66.26 -33.8716 0
15403 -67.4197 -33.7177 0
858 -64.8227 -35.1441 0
969 -65.9123 -34.9162 0
1121 -65.1704 -34.0316 0
906 -64.1211 -34.2849 0
848 -62.9826 -34.4851 0
891 -61.9336 -34.5859 0
983 -61.1733 -33.6572 0
15289 -62.2702 -33.5373 0
981 -60.7108 -34.6223 0
905 -59.6427 -34.8633 0
808 -59.9864 -33.7778 0
947 -58.8847 -34.0674 0
686 -58.5514 -35.108 0
1127 -57.7747 -34.309 0
824 -56.7389 -34.4034 0
971 -55.9672 -33.4905 0
974 -55.651 -34.5987 0
894 -54.5096 -34.7945 0
928 -54.8604 -33.7715 0
640 -53.7976 -33.8288 0
3526 -52.3253 -35.1249 0
667 -53.4484 -34.9131 0
718 -52.7594 -34.0273 0
664 -51.7221 -34.2024 0
902 -50.6104 -34.4273 0
3408 -49.537 -34.6205 0
961 -48.682 -33.7432 0
3493 -48.4866 -34.7761 0
3660 -47.3469 -34.9243 0
668 -47.6417 -33.8939 0
832 -46.2216 -34.9832 0
788 -46.506 -33.9526 0
3566 -45.3994 -34.0401 0
1005 -66.6991 -32.8149 0
924 -65.9752 -31.9759 0
930 -65.5639 -33.0523 0
938 -64.4755 -33.1857 0
980 -64.9102 -32.1241 0
898 -63.4361 -33.4254 0
937 -63.8214 -32.2997 0
966 -62.6925 -32.5739 0
1129 -61.5568 -32.5881 0
817 -60.4599 -32.8053 0
827 -59.284 -33.0401 0
1059 -59.7787 -31.8623 0
15602 -58.2327 -33.2019 0
976 -58.6139 -32.2139 0
849 -57.5081 -32.3221 0
991 -57.0387 -33.347 0
834 -56.4002 -32.4275 0
866 -55.2361 -32.7077 0
738 -54.1308 -32.7696 0
819 -53.0857 -32.9998 0
860 -52.3187 -32.1559 0
730 -53.4529 -31.8969 0
3569 -52.024 -33.1658 0
3462 -50.875 -33.3466 0
1086 -51.2575 -32.35 0
759 -49.7707 -33.5847 0
901 -50.1493 -32.4957 0
666 -49.0806 -32.7039 0
835 -48.0074 -32.8487 0
782 -47.2704 -31.9182 0
3573 -46.9428 -32.936 0
3565 -45.8057 -32.9963 0
3444 -46.2378 -32.0246 0
15603 -67.101 -31.8674 0
15446 -67.5164 -30.8332 0
15517 -66.4086 -30.8902 0
15484 -65.2936 -31.1304 0
1282 -64.6485 -30.1667 0
1041 -64.2359 -31.221 0
1084 -63.1765 -31.4243 0
1083 -63.5345 -30.4036 0
896 -62.473 -30.6258 0
972 -62.0421 -31.6358 0
15437 -61.2758 -30.6343 0
933 -60.9156 -31.7451 0
15641 -60.252 -30.9013 0
1163 -58.9674 -31.0615 0
890 -57.9905 -31.3074 0
935 -58.3144 -30.2352 0
1015 -57.3103 -30.4849 0
509 -56.8863 -31.4091 0
705 -56.0782 -30.6074 0
707 -55.6753 -31.6606 0
779 -54.5477 -31.7089 0
694 -55.0171 -30.6833 0
816 -53.7796 -30.8617 0
857 -52.6953 -31.0939 0
671 -51.6707 -31.2983 0
916 -50.8421 -30.447 0
1030 -50.6225 -31.4863 0
3608 -52.0088 -30.2383 0
784 -49.506 -31.6619 0
720 -49.7859 -30.6761 0
774 -48.7404 -30.7525 0
790 -48.4189 -31.7705 0
3601 -47.7357 -30.9933 0
3575 -46.6753 -31.0273 0
708 -45.8756 -30.1797 0
15710 -66.7425 -29.819 0
1170 -67.0996 -28.7543 0
15671 -66.0484 -28.9936 0
15480 -65.6789 -30.006 0
1201 -64.9706 -29.1529 0
1011 -63.8684 -29.2907 0
15674 -62.8172 -29.5872 0
1130 -63.1521 -28.4854 0
1090 -61.7099 -29.6327 0
1001 -62.0899 -28.5669 0
15560 -60.9467 -28.8004 0
748 -59.3887 -29.9984 0
1251 -60.5588 -29.7749 0
15408 -59.8485 -29.0016 0
899 -58.7126 -29.223 0
820 -57.5701 -29.441 0
941 -56.5522 -29.6545 0
783 -55.7646 -28.6706 0
867 -56.9365 -28.5606 0
915 -55.4361 -29.6885 0
3642 -54.1937 -29.8697 0
769 -54.6403 -28.92 0
908 -53.0741 -29.9548 0
3564 -53.5845 -28.9574 0
3488 -52.4414 -29.063 0
750 -51.3755 -29.3054 0
746 -50.2308 -29.5324 0
3485 -49.1732 -29.7369 0
3844 -49.5889 -28.6514 0
787 -48.0545 -29.9546 0
710 -47.4457 -29.0311 0
919 -48.4929 -28.9031 0
712 -47.0389 -29.9955 0
3528 -46.2968 -29.1501 0
944 -66.3845 -27.8306 0
1172 -67.6171 -27.7417 0
15789 -66.8696 -26.9282 0
15715 -65.367 -28.1126 0
15793 -64.6521 -27.2571 0
15867 -65.7482 -26.972 0
15757 -64.2303 -28.2579 0
15680 -63.5879 -27.3746 0
15834 -62.4979 -27.5195 0
977 -61.2544 -27.727 0
15600 -60.1626 -27.9591 0
939 -59.5109 -27.0966 0
15485 -59.1342 -28.1685 0
942 -58.0202 -28.331 0
1019 -58.4503 -27.3205 0
865 -57.3835 -27.4022 0
744 -56.1996 -27.5433 0
814 -55.0728 -27.721 0
959 -54.0228 -27.9834 0
831 -52.8034 -28.1071 0
1018 -53.2629 -27.0718 0
3762 -52.168 -27.2026 0
3843 -50.664 -28.4081 0
742 -51.7222 -28.2466 0
1152 -51.0675 -27.3377 0
887 -49.9605 -27.6436 0
871 -48.7501 -27.8507 0
3574 -47.6385 -27.9126 0
1363 -48.1217 -26.8644 0
912 -47.8445 -24.9998 0
3807 -46.9496 -27.0187 0
911 -46.5801 -28.0955 0
3610 -45.8803 -27.1949 0
15378 -67.2294 -25.7439 0
15714 -66.215 -26.0405 0
15520 -65.0873 -26.199 0
15755 -65.4651 -25.128 0
15548 -64.3818 -25.2793 0
15588 -63.9797 -26.3314 0
1089 -62.9257 -26.5044 0
1131 -63.2728 -25.4553 0
3883 -61.8033 -26.7021 0
1044 -62.1493 -25.6823 0
1243 -61.0095 -25.878 0
1016 -60.5408 -26.884 0
3801 -59.8597 -26.0908 0
864 -59.1525 -25.2401 0
1091 -58.7678 -26.2486 0
914 -57.7221 -26.3429 0
953 -58.0916 -25.2996 0
936 -56.6345 -26.5222 0
3768 -55.8497 -25.6572 0
1162 -57.0091 -25.4224 0
900 -54.2932 -26.9132 0
785 -55.4417 -26.6702 0
854 -54.7481 -25.8154 0
822 -53.6675 -25.9471 0
826 -52.5726 -26.1279 0
1356 -52.9538 -25.1282 0
879 -51.4617 -26.3519 0
670 -50.7889 -25.4631 0
3767 -51.8562 -25.3146 0
876 -50.3279 -26.5592 0
830 -49.2269 -26.7814 0
756 -49.703 -25.7138 0
1064 -48.5473 -25.8828 0
946 -47.4138 -25.9722 0
711 -45.5842 -25.2923 0
800 -46.2651 -26.2322 0
1285 -66.9959 -23.804 0
1146 -66.544 -24.9792 0
3563 -50.5875 -23.5205 0
15796 -65.909 -24.0808 0
15637 -64.8314 -24.272 0
1266 -63.6733 -24.43 0
794 -46.0256 -24.2356 0
1241 -61.9059 -23.7676 0
1325 -62.5696 -24.6344 0
1087 -61.3882 -24.8703 0
1028 -60.7497 -23.9585 0
828 -60.3069 -25.0712 0
973 -59.5873 -24.2096 0
888 -58.5082 -24.339 0
856 -57.3926 -24.4534 0
1032 -56.2489 -24.6619 0
829 -55.6599 -23.725 0
825 -55.1403 -24.7967 0
1053 -54.487 -23.8734 0
1151 -54.0419 -24.8668 0
868 -53.441 -24.008 0
909 -52.3279 -24.1759 0
1033 -51.2577 -24.4454 0
877 -45.5128 -28.2189 0
955 -49.0742 -24.8531 0
15486 -50.1364 -24.5187 0
1111 -49.3735 -23.7924 0
903 -48.2726 -23.968 0
15442 -67.6803 -35.7194 0
15407 -62.9823 -23.5902 0
15250 -67.6924 -46.4486 0
15750 -67.647 -24.6751 0
3381 -45.1604 -40.1099 0
15008 -59.3538 -46.91 0
3531 -45.165 -43.1638 0
1063 -64.1533 -23.4998 0
992 -57.8284 -23.4684 0
15706 -67.3946 -22.7907 0
15866 -66.3565 -22.9143 0
1202 -66.673 -21.8712 0
15836 -65.322 -23.2127 0
982 -65.5246 -22.0939 0
15752 -64.4813 -22.331 0
1208 -63.4056 -22.5411 0
1327 -67.6704 -10.8568 0
1124 -62.3508 -22.7232 0
1060 -61.14 -22.9826 0
956 -60.0397 -23.1423 0
979 -59.3954 -22.1941 0
15712 -60.5258 -22.0701 0
3884 -58.9613 -23.2911 0
861 -58.3337 -22.3946 0
1570 -67.6898 -13.9252 0
907 -57.2378 -22.5622 0
1103 -56.0705 -22.6661 0
4297 -45.5393 -0.663645 0
3770 -54.9441 -22.8756 0
1157 -54.2853 -21.9625 0
1105 -53.8643 -22.9832 0
954 -52.7684 -23.1938 0
1143 -53.1087 -22.1425 0
833 -51.953 -22.203 0
943 -50.821 -22.4438 0
4121 -48.9211 -0.0957286 0
1073 -49.7951 -22.685 0
796 -48.7421 -22.8591 0
3774 -47.5849 -23.0447 0
1022 -47.9988 -22.0832 0
1265 -46.3023 -1.52966 0
1344 -46.8778 -22.192 0
1141 -45.8013 -22.354 0
1036 -46.4343 -23.2117 0
15749 -67.0963 -20.8899 0
4241 -46.6305 -0.45205 0
1203 -65.9975 -21.003 0
15601 -64.9265 -21.1866 0
1256 -65.3662 -20.154 0
15717 -64.2871 -20.416 0
15904 -63.877 -21.4702 0
1054 -63.2187 -20.6054 0
15670 -61.6593 -21.9248 0
15720 -62.8137 -21.5679 0
1250 -62.0206 -20.7157 0
985 -60.9456 -21.1109 0
1000 -59.7626 -21.1697 0
1244 -59.114 -20.306 0
958 -58.7258 -21.3089 0
1069 -58.0437 -20.5041 0
1204 -57.6763 -21.4947 0
1185 -56.5838 -21.6755 0
1102 -57.0039 -20.7046 0
873 -55.8472 -20.9107 0
1038 -55.3636 -21.8944 0
1051 -54.7656 -20.9087 0
1079 -53.5787 -21.1033 0
1227 -52.425 -21.1848 0
1219 -52.9022 -20.2058 0
1068 -51.3024 -21.3421 0
910 -51.736 -20.335 0
3841 -50.6355 -20.5609 0
1184 -49.1211 -21.7931 0
949 -50.1487 -21.5508 0
1150 -49.5176 -20.7277 0
948 -48.4747 -20.9817 0
950 -47.4502 -21.1395 0
874 -46.2345 -21.2945 0
3681 -45.4866 -20.4972 0
1042 -66.4374 -19.99 0
15873 -67.5405 -19.8644 0
15861 -66.8515 -19.0132 0
1050 -65.7754 -19.1993 0
1366 -64.7076 -19.3303 0
1101 -63.5139 -19.5236 0
1008 -62.8157 -18.6619 0
15677 -63.9052 -18.4749 0
15837 -62.4785 -19.7512 0
15798 -61.2389 -19.998 0
1175 -61.6876 -19.046 0
15679 -60.1858 -20.1495 0
1082 -60.5743 -19.0959 0
1039 -59.5019 -19.2522 0
1097 -58.4281 -19.4197 0
988 -57.3583 -19.6932 0
1021 -56.2235 -19.8388 0
1215 -56.6487 -18.8564 0
1061 -55.1117 -19.9214 0
1074 -54.4178 -19.0662 0
1324 -55.6045 -18.9077 0
3921 -53.9969 -20.0544 0
904 -53.3459 -19.1623 0
1206 -52.1733 -19.3688 0
984 -51.0673 -19.4666 0
1065 -49.9385 -19.7046 0
4001 -49.1872 -18.8676 0
1240 -50.2563 -18.6911 0
1153 -48.8666 -19.8794 0
1066 -47.777 -20.1165 0
1076 -48.1169 -19.0899 0
823 -46.6059 -20.1888 0
1072 -46.9925 -19.1691 0
3603 -45.8459 -19.3945 0
15797 -67.1973 -17.9669 0
1255 -66.496 -17.0302 0
1248 -67.5928 -16.8916 0
15787 -66.1131 -18.1065 0
1369 -65.0586 -18.3142 0
1168 -65.4395 -17.2756 0
1167 -64.3839 -17.4804 0
951 -63.2764 -17.5968 0
1176 -62.1629 -17.8286 0
1020 -61.0958 -18.1303 0
1096 -61.4421 -17.0388 0
15875 -62.5669 -16.7734 0
1057 -59.9504 -18.3058 0
1236 -60.3519 -17.183 0
3766 -57.6884 -18.5845 0
1365 -59.2137 -17.3476 0
1165 -58.863 -18.367 0
940 -58.1051 -17.5252 0
1138 -56.9385 -17.7974 0
1100 -55.7996 -17.8727 0
3804 -54.746 -18.0066 0
990 -54.049 -17.1081 0
978 -55.1758 -16.9552 0
998 -52.545 -18.2603 0
1234 -53.6351 -18.0986 0
1108 -52.9597 -17.2109 0
1092 -51.4642 -18.3785 0
3690 -51.8696 -17.3529 0
1026 -50.736 -17.5589 0
1207 -49.548 -17.885 0
4002 -48.9711 -16.9037 0
1034 -48.4428 -17.984 0
4008 -47.4532 -18.1836 0
1080 -47.8339 -17.0376 0
836 -46.3066 -18.3199 0
3966 -46.6934 -17.3498 0
994 -45.514 -17.3589 0
4204 -66.8937 -15.9731 0
1447 -66.2156 -15.1096 0
15795 -65.7969 -16.2571 0
15711 -64.7621 -16.4345 0
1385 -65.1176 -15.3356 0
1249 -63.6181 -16.5872 0
1223 -62.9378 -15.758 0
1409 -64.064 -15.6039 0
1014 -61.7628 -15.9979 0
1321 -60.7012 -16.1088 0
1134 -59.6104 -16.266 0
1095 -60.0519 -15.2918 0
1299 -58.5862 -16.4257 0
986 -57.8887 -15.6155 0
1445 -58.9912 -15.3475 0
1071 -56.2729 -16.8223 0
1309 -57.4632 -16.6383 0
1132 -56.656 -15.7567 0
1210 -55.6316 -15.8621 0
1013 -54.5363 -16.0635 0
1062 -53.3407 -16.1732 0
1045 -52.6198 -15.3445 0
1291 -53.7969 -15.2003 0
1128 -52.1938 -16.3553 0
1114 -51.1078 -16.5365 0
1088 -51.4869 -15.5068 0
1107 -50.4097 -15.6599 0
1024 -50.0304 -16.7168 0
1178 -49.3558 -15.9045 0
838 -48.2261 -16.0405 0
1025 -47.0589 -16.2417 0
1220 -47.4965 -15.1905 0
875 -45.9481 -16.3675 0
3771 -46.4138 -15.3838 0
1177 -67.3161 -14.9458 0
15990 -66.609 -14.1164 0
4406 -45.234 -1.82441 0
1343 -65.3819 -14.2404 0
1205 -64.3595 -14.4907 0
1332 -63.3118 -14.6997 0
1052 -62.5955 -13.741 0
1307 -63.6941 -13.4943 0
1058 -61.0955 -15.0084 0
1031 -62.218 -14.8631 0
1461 -61.502 -13.9759 0
1610 -60.366 -14.1908 0
1572 -59.312 -14.3122 0
1253 -58.2237 -14.487 0
1301 -57.4791 -13.6354 0
1342 -58.5093 -13.4515 0
1283 -56.0295 -14.8035 0
1509 -57.1373 -14.726 0
1314 -56.4207 -13.7866 0
1245 -54.8902 -15.0094 0
1144 -55.293 -13.9646 0
1142 -54.1793 -14.1709 0
1225 -53.0125 -14.264 0
1188 -51.9017 -14.4745 0
1389 -50.7933 -14.5921 0
1027 -51.2315 -13.5843 0
1308 -49.7002 -14.7952 0
1226 -48.9772 -13.938 0
1183 -50.0616 -13.7023 0
989 -48.677 -15.0528 0
3886 -47.9203 -14.0577 0
3923 -46.7803 -14.2124 0
3641 -45.6776 -14.5564 0
1330 -66.9858 -13.0144 0
1331 -66.2993 -12.1412 0
1374 -67.3471 -11.9303 0
1391 -64.8024 -13.3205 0
1490 -65.8756 -13.1875 0
1449 -65.216 -12.2963 0
1494 -64.0477 -12.5032 0
1407 -62.9364 -12.7095 0
1173 -61.8172 -12.8813 0
1614 -61.2054 -12.0052 0
1387 -60.7472 -13.0663 0
1361 -59.6558 -13.2226 0
1448 -60.1208 -12.244 0
1094 -58.9763 -12.4091 0
1182 -57.8753 -12.6205 0
1133 -56.7952 -12.7967 0
1345 -56.1234 -11.8898 0
1611 -55.7239 -12.8594 0
15756 -54.5552 -13.1184 0
1392 -55.0371 -11.962 0
1222 -53.982 -12.2041 0
1432 -53.4371 -13.2073 0
1125 -52.8136 -12.3723 0
4007 -52.3678 -13.3082 0
1187 -51.6897 -12.5523 0
1211 -50.4965 -12.714 0
1120 -49.4291 -12.903 0
1140 -49.7554 -11.8394 0
1287 -48.4839 -12.2735 0
1305 -47.3396 -12.9439 0
3885 -46.0132 -13.4552 0
758 -45.2062 -12.5852 0
4122 -46.322 -12.482 0
1293 -66.6738 -11.1038 0
16015 -67.1048 -9.97501 0
4338 -47.7793 -0.317448 0
1286 -65.9327 -10.2143 0
1295 -65.5593 -11.2785 0
1254 -64.8635 -10.4273 0
1565 -64.4639 -11.4779 0
1410 -63.4099 -11.6114 0
1522 -63.8159 -10.55 0
1417 -62.6907 -10.7003 0
1337 -62.2477 -11.7528 0
1505 -61.6183 -10.8517 0
1373 -60.5182 -11.1173 0
1214 -59.3857 -11.3566 0
15949 -59.834 -10.3453 0
1423 -58.2515 -11.5313 0
4289 -57.5714 -10.6492 0
1263 -58.6755 -10.399 0
4202 -57.186 -11.7191 0