ITEM: TIMESTEP
300000
ITEM: NUMBER OF ATOMS
7225
ITEM: BOX BOUNDS pp pp pp
2.6848001500975416e+00 9.7315199849903536e+01
2.6848001500975416e+00 9.7315199849903536e+01
-5.0000000000000000e-01 5.0000000000000000e-01
ITEM: ATOMS id x y z
504 3.6126 4.55027 0
3534 5.91291 3.62255 0
3498 6.80948 4.42356 0
2300 7.64885 3.70126 0
1729 8.70401 3.53279 0
290 9.7328 3.42801 0
86 10.7992 3.37327 0
4015 15.6762 49.5681 0
1896 11.8196 3.30949 0
5781 3.17371 13.1143 0
5 26.2046 21.0657 0
4385 12.872 3.46389 0
3505 14.8167 3.99942 0
5710 16.7565 3.10736 0
1504 15.5867 3.23402 0
174 17.8876 3.1493 0
3219 2.85073 3.24475 0
5711 18.5317 3.95098 0
2390 20.7379 3.07928 0
1817 19.6156 3.50757 0
3647 21.6146 3.91782 0
412 22.6539 3.83283 0
3846 25.8001 3.65898 0
4384 26.0277 31.7678 0
977 26.2949 18.3421 0
322 2.7014 5.3383 0
5664 4.82553 5.62432 0
3644 5.75364 5.23927 0
5139 6.57179 5.83572 0
1348 8.03028 4.69641 0
1851 8.58381 5.55683 0
145 9.15725 4.45313 0
5700 9.30535 6.40186 0
1839 11.5766 4.36425 0
1813 10.4567 4.45264 0
3436 12.7399 4.52601 0
1287 14.0756 3.27313 0
5663 12.1331 5.87045 0
1781 13.7948 4.49379 0
5214 15.3534 4.92932 0
4669 16.2635 4.19237 0
1358 17.4772 4.1296 0
2376 16.1315 5.53983 0
5628 19.3225 4.59498 0
5305 18.3397 5.09429 0
3274 20.5609 4.37635 0
2121 20.2787 5.39361 0
2062 21.4484 5.02659 0
2784 22.6057 4.86372 0
3631 23.6167 4.37437 0
2268 23.4874 5.50453 0
3869 24.6824 4.01369 0
2061 24.5107 5.18014 0
1513 25.6361 4.70134 0
5138 25.0732 6.26321 0
3701 18.8715 2.69028 0
5819 3.64145 6.65336 0
5436 25.7999 46.8269 0
14 5.56524 6.35556 0
526 7.04427 7.1133 0
1958 7.62214 6.02522 0
3486 9.78608 5.36788 0
7074 10.319 6.29602 0
3383 10.9882 5.473 0
860 11.3605 6.70092 0
1919 12.5705 7.11321 0
2355 13.2491 5.58421 0
1792 14.3708 5.47738 0
5971 14.0569 6.44851 0
1614 15.1812 6.20288 0
3493 16.8822 6.36305 0
3055 19.2177 5.7294 0
4706 17.2445 5.21338 0
610 20.0008 6.51287 0
314 20.9984 6.12767 0
4203 22.2353 5.97427 0
410 21.7221 6.95886 0
3297 22.8594 6.85082 0
3331 23.9529 6.4759 0
1003 24.7806 7.32637 0
3318 25.8622 7.05095 0
2146 4.7442 7.04862 0
161 4.89486 8.29065 0
3717 5.82256 7.51536 0
2098 7.84905 7.76423 0
7031 8.29851 6.78375 0
549 9.49647 7.45351 0
2443 10.6086 7.62042 0
5326 11.0383 8.65193 0
5638 11.7114 7.86056 0
849 12.7717 8.19832 0
1836 13.5521 7.39559 0
299 15.8452 7.05115 0
5274 14.9342 7.59281 0
3872 16.7288 7.46775 0
3428 18.0398 6.23952 0
5401 18.9304 6.85426 0
4250 20.2028 8.28223 0
228 20.7233 7.29545 0
2319 21.3772 8.10479 0
4751 22.4361 7.84992 0
2807 23.3918 8.78184 0
2385 23.6551 7.60507 0
5012 24.3912 8.43681 0
2280 25.5328 8.2196 0
273 3.92066 7.73478 0
3822 3.77183 8.70823 0
1227 26.2257 29.1411 0
3380 4.89504 9.46751 0
593 6.87587 8.29314 0
523 5.90155 8.73868 0
1930 6.8728 9.4082 0
576 7.82692 10.2168 0
3283 7.87759 9.00758 0
5614 9.87197 8.63441 0
122 8.75225 9.61906 0
3379 12.1243 8.98493 0
5111 12.6004 10.0822 0
244 13.1924 9.22206 0
1337 14.0711 8.36212 0
2134 14.4711 9.66015 0
1780 16.2113 8.55127 0
5613 15.1113 8.66976 0
310 16.699 9.48763 0
3515 17.3922 8.26211 0
5497 18.0089 7.38849 0
4029 17.6816 9.35672 0
1918 18.7232 9.36095 0
5317 19.2279 7.79459 0
2107 19.8003 9.31578 0
4695 21.0009 9.12334 0
3707 22.0431 10.1856 0
4555 22.1237 9.07267 0
3499 23.1166 10.0132 0
3452 25.127 9.22044 0
4904 25.0246 10.4206 0
4331 26.1136 9.22167 0
2906 25.5142 41.6392 0
510 3.00224 10.9707 0
685 5.94869 9.92451 0
78 3.94935 10.1656 0
670 6.79604 10.525 0
7116 8.51976 11.0544 0
3546 9.6935 10.783 0
2223 10.1114 9.75704 0
495 11.373 9.74714 0
25 11.8478 10.7726 0
4126 13.5693 10.6741 0
3455 14.8939 10.6922 0
3232 15.5578 9.77834 0
2110 16.2084 10.7148 0
3890 17.3701 10.5237 0
3460 16.7983 11.5657 0
77 18.505 10.391 0
3479 19.8033 10.5398 0
3403 21.0238 10.2277 0
3636 20.458 11.4229 0
238 21.5332 11.1602 0
4028 22.6262 11.0139 0
1838 24.1598 9.64296 0
1951 23.9109 10.7496 0
207 24.7758 11.5719 0
269 21.8732 2.80951 0
984 26.034 49.9195 0
2439 5.01752 10.5718 0
4299 3.9411 11.3932 0
1783 5.02371 11.7166 0
5617 6.87689 11.5466 0
5677 5.96297 11.1281 0
2746 6.13807 12.2567 0
2014 8.00823 12.0371 0
2715 7.04094 12.9209 0
5337 9.10456 11.8572 0
358 10.69 10.734 0
693 11.4778 11.9129 0
5680 12.6996 11.4395 0
5605 13.981 11.8339 0
4105 12.1201 12.8634 0
3132 14.4635 12.8887 0
1554 15.3024 11.7697 0
2910 15.4533 13.6 0
3376 16.2886 12.5379 0
5107 18.1996 11.4693 0
6278 19.2371 11.4654 0
2919 20.4361 12.4896 0
5296 18.6752 12.5595 0
3994 21.45 12.297 0
2950 22.601 12.0865 0
1841 23.2717 13.1764 0
2407 23.6568 11.7514 0
3696 2.95495 7.47041 0
6552 22.7833 49.5063 0
480 4.20162 12.3953 0
190 4.19169 13.5101 0
6508 5.1415 12.9298 0
5812 5.90796 13.5529 0
3668 8.74284 12.9757 0
5988 10.2475 11.783 0
3569 11.0959 12.9255 0
3747 10.0186 12.9878 0
3374 11.5852 13.8632 0
42 13.1446 12.4863 0
1909 12.9731 13.6162 0
2165 14.1895 13.8927 0
3345 14.9901 14.546 0
5096 16.6637 13.904 0
3865 17.4899 12.5649 0
4064 17.8066 13.8182 0
2242 18.8322 13.6057 0
2446 19.9146 13.4112 0
4307 21.1172 13.3667 0
7042 22.2332 13.0898 0
1 21.8673 14.1791 0
7142 23.4105 14.2288 0
1426 24.2956 13.3978 0
560 25.1945 12.7849 0
2657 25.7312 37.9848 0
500 25.3652 13.8683 0
5597 3.02373 14.161 0
6605 2.81243 15.5093 0
4359 4.06087 14.7658 0
1687 4.96659 15.3608 0
5678 5.02857 14.0821 0
308 5.93565 14.8629 0
5651 6.77148 14.2409 0
70 7.7922 13.6856 0
5278 8.93259 14.0637 0
2066 8.15624 14.8998 0
158 10.4699 13.9138 0
5115 9.84537 14.8155 0
2205 10.9239 14.9359 0
3541 11.9763 14.9594 0
2230 13.0628 15.0632 0
1796 14.1888 15.2478 0
5304 16.1731 14.8628 0
1394 17.2449 14.857 0
5007 17.8752 15.7233 0
326 16.5272 15.9382 0
323 18.4607 14.6815 0
2472 19.5732 14.4938 0
108 20.5969 14.2941 0
5647 20.1863 15.361 0
3600 21.3675 15.2696 0
3703 23.6261 15.2726 0
3102 24.5241 15.8146 0
6632 24.5562 14.496 0
940 2.83173 30.7547 0
2618 25.4763 14.9869 0
543 3.00242 16.6162 0
6657 4.02062 15.9118 0
340 5.02377 16.5581 0
1889 3.91172 17.1384 0
2135 6.0436 15.9807 0
40 7.08591 15.3003 0
3922 6.94606 16.64 0
343 8.02803 16.0211 0
365 9.04714 15.5251 0
2469 10.0278 15.9621 0
5773 11.2705 16.0026 0
3744 12.4082 15.9557 0
3699 12.0691 17.0464 0
3503 13.6019 16.1574 0
2172 15.2996 15.6191 0
5770 15.5511 17.0538 0
105 17.2857 16.8079 0
3706 18.7482 16.6314 0
3211 18.6082 17.6605 0
5255 19.0551 15.6014 0
1524 19.9193 16.5314 0
109 20.9169 16.2393 0
2430 21.7661 17.0249 0
1517 22.5004 15.0648 0
1991 22.7462 16.2154 0
3626 25.5668 16.0715 0
1457 7.33441 49.6503 0
1965 2.84257 25.2161 0
47 2.95301 17.79 0
2477 3.86269 18.2289 0
41 4.9405 17.6617 0
239 5.96086 17.0783 0
4677 6.80349 18.0377 0
254 5.61308 18.4644 0
972 7.82135 17.1206 0
3 8.78097 16.7258 0
2729 10.9294 17.0238 0
6339 9.87457 17.0753 0
538 10.2692 18.1662 0
2328 11.3991 18.0617 0
3363 13.3001 17.2476 0
7135 14.4221 17.6974 0
3635 14.7126 16.4905 0
7036 15.5563 18.1482 0
3917 16.528 17.4931 0
2323 16.6282 18.5802 0
4351 17.4725 17.8971 0
5257 17.9392 18.8938 0
1647 19.7143 17.7307 0
2918 20.443 18.5046 0
591 20.8196 17.4895 0
1884 21.7628 18.1314 0
2119 22.8947 17.3053 0
2967 23.7559 16.5662 0
2302 24.7221 16.9971 0
6656 2.67566 42.5657 0
6003 24.7047 49.8007 0
2524 3.68717 19.265 0
124 4.80306 19.5244 0
3426 5.84062 19.5248 0
2735 7.75838 18.3392 0
3947 7.65408 19.7628 0
5755 8.65865 19.2958 0
287 8.82876 18.0279 0
3891 9.50389 20.0433 0
474 10.2099 19.2659 0
3585 11.4009 19.0952 0
2042 12.563 19.1376 0
3956 12.416 18.0536 0
1615 13.5761 18.3848 0
2555 14.581 18.9316 0
5033 15.694 19.2813 0
3304 17.8454 19.9503 0
7047 18.9365 19.8265 0
1890 19.0934 18.6336 0
3440 19.868 19.3161 0
6829 21.2994 19.3505 0
2307 22.7127 18.7456 0
3816 23.9126 17.8971 0
460 23.4122 19.6203 0
1945 24.3897 19.179 0
5999 25.1461 18.1552 0
4077 25.5186 19.1151 0
1773 4.27726 3.63546 0
3799 5.24114 20.4781 0
156 6.02474 21.1445 0
6008 6.88945 20.5587 0
618 6.64539 22.2065 0
511 6.7806 19.0076 0
6241 8.4515 20.5259 0
793 9.73689 21.2972 0
3620 10.7885 20.1687 0
2126 11.9945 21.0916 0
2252 11.8598 20.0436 0
5624 13.7029 19.6173 0
1622 14.7941 19.9798 0
3656 15.8255 20.3046 0
3485 15.0218 20.9792 0
4041 16.8018 19.7975 0
2132 17.5458 21.0373 0
5090 18.5626 20.7534 0
3654 19.7427 20.5801 0
4016 20.7035 20.1945 0
2726 22.3669 19.8073 0
369 21.8212 20.7761 0
2075 24.2411 20.2861 0
3591 23.0869 20.6512 0
2226 25.3958 20.1865 0
431 4.07332 20.345 0
5379 3.77183 22.2652 0
2088 4.60645 21.5351 0
2006 4.65069 23.2059 0
1985 5.56836 22.3671 0
1031 7.41857 21.4976 0
6932 8.51084 21.5697 0
5133 10.4431 22.3527 0
385 9.35506 22.2959 0
2781 11.1603 23.2787 0
2570 10.9597 21.3182 0
347 13.1039 21.3182 0
5063 11.7449 22.2228 0
2792 12.3561 23.5155 0
429 12.8974 22.5605 0
3743 13.9511 20.7624 0
476 14.2593 21.825 0
3256 16.164 21.3455 0
4338 17.4369 22.1005 0
4183 15.3239 22.0969 0
1894 18.4999 22.2688 0
2197 19.4419 21.727 0
3874 20.604 21.2131 0
2421 20.4998 22.3218 0
2601 21.4907 21.7947 0
2625 22.6037 21.6782 0
2636 23.9047 21.3379 0
4848 9.23163 49.4075 0
263 3.57579 23.5571 0
262 4.38005 24.3457 0
1455 5.39029 23.8806 0
3384 6.29698 23.2388 0
4157 6.44099 24.4016 0
1786 7.94944 22.6398 0
5564 7.36763 23.6152 0
6380 10.1061 23.4 0
3952 8.94098 23.3504 0
524 10.5932 24.3144 0
1707 11.6676 24.468 0
2248 13.0157 24.4231 0
5004 13.4341 23.4198 0
330 14.5116 22.9648 0
2116 16.2127 24.2382 0
4113 16.3305 22.4937 0
2380 18.2437 23.2763 0
1486 19.3918 22.8261 0
2562 19.196 23.9055 0
2387 20.3902 23.6791 0
3099 21.371 23.0573 0
5219 22.5781 22.7167 0
2299 23.7608 22.5041 0
5881 24.5803 23.2604 0
2099 23.5191 23.631 0
1992 25.0311 22.2678 0
4651 25.7991 24.2997 0
3852 3.25924 21.0857 0
2021 4.00805 25.4269 0
6064 25.7181 23.1521 0
3860 5.39606 24.9613 0
1821 5.02145 26.09 0
372 6.29324 25.7029 0
336 7.56713 25.3588 0
611 8.26094 24.2967 0
2652 9.42394 24.4176 0
415 9.94365 25.3087 0
383 12.3562 25.3398 0
5602 11.1105 25.3854 0
587 11.6587 26.3107 0
203 12.9359 26.3225 0
4040 13.5102 25.3468 0
658 14.6279 25.4172 0
4763 14.1182 24.2569 0
5587 15.6016 23.2823 0
788 16.9945 24.9684 0
4439 17.9702 24.3642 0
5357 18.8286 25.1443 0
5562 20.0385 24.8113 0
4127 21.2878 24.2929 0
3549 22.4137 23.8515 0
2424 21.964 25.0747 0
2241 23.0662 24.8931 0
2441 24.4148 24.299 0
6135 25.1514 25.374 0
6881 3.36918 26.3526 0
1472 13.6186 49.6853 0
2440 4.33934 26.8248 0
3471 5.95589 26.7585 0
546 7.02837 26.3952 0
4074 8.14301 26.3632 0
3197 8.84988 27.3213 0
482 8.68531 25.3584 0
2752 9.37965 26.3054 0
440 9.98205 27.4152 0
3885 10.4971 26.3734 0
1040 12.336 27.3499 0
1021 13.9488 27.674 0
4021 14.1322 26.365 0
5787 15.3008 26.7402 0
3607 15.1639 24.3515 0
676 17.8742 25.6264 0
1824 17.7396 26.6975 0
2526 18.7082 26.4429 0
4083 19.7683 25.8937 0
609 20.3967 26.8437 0
5321 20.7632 25.5836 0
351 21.5111 26.3464 0
5119 22.7219 25.9438 0
6968 23.8809 25.4686 0
3522 23.7181 26.6038 0
2480 24.7871 26.441 0
5441 3.0052 12.01 0
2175 4.02137 27.8722 0
6420 25.4137 44.8418 0
305 5.39613 28.0144 0
4520 6.64088 27.5511 0
3571 6.10918 28.7268 0
799 7.71881 27.4968 0
3652 7.35632 28.5286 0
6838 8.43041 28.4093 0
2727 9.53634 28.4397 0
3438 11.0442 27.5677 0
2267 10.6481 28.4877 0
3882 11.8447 28.3734 0
17 14.9093 28.1629 0
2009 16.4681 26.9384 0
2277 15.6563 25.3409 0
6066 16.2145 28.0545 0
4345 17.1686 27.7823 0
5155 18.3402 27.5645 0
404 19.383 27.5556 0
240 19.985 28.6429 0
3433 21.2532 27.6367 0
2518 22.3191 27.3868 0
2037 22.3033 28.4089 0
1016 23.3574 27.6371 0
6749 24.4813 27.6285 0
1905 25.6246 27.2607 0
288 3.32531 28.8363 0
5582 4.60343 28.826 0
2149 4.79061 29.9492 0
2153 6.87564 29.5067 0
6817 5.88443 29.902 0
4310 7.99685 29.4464 0
3731 9.08283 29.3947 0
842 10.1741 29.4099 0
6061 11.2516 29.31 0
642 12.5444 29.3548 0
6653 13.005 28.2129 0
4128 13.7521 29.7974 0
932 15.5694 29.8591 0
2023 16.4861 30.3792 0
6293 15.5591 31.027 0
274 16.5473 29.1906 0
307 18.8471 28.5747 0
2830 17.7968 28.9076 0
2124 18.445 29.7171 0
2111 19.5039 29.6388 0
3326 21.285 28.8543 0
4495 22.2949 29.4941 0
1956 23.3189 28.9541 0
2702 24.3296 28.6724 0
2501 25.4087 28.3295 0
5847 25.1791 29.441 0
2404 3.9742 31.2643 0
959 25.4425 48.9722 0
2256 3.5359 29.9396 0
588 5.08936 31.1332 0
791 6.41847 30.8212 0
5645 7.51683 30.5506 0
2898 8.57603 30.4802 0
3651 9.22942 31.413 0
1947 8.01529 31.5192 0
730 9.64157 30.3467 0
1176 10.4093 31.5667 0
1262 10.7914 30.4219 0
6316 11.6674 31.4251 0
564 11.8544 30.215 0
3733 12.8883 30.4295 0
127 14.6596 29.1616 0
1649 14.6389 30.5228 0
255 14.7973 31.7472 0
103 15.7714 32.3009 0
3418 16.5763 31.424 0
1987 16.7164 32.4769 0
4247 17.6321 31.0966 0
270 17.453 29.925 0
3467 18.8122 30.729 0
2378 18.5657 31.7025 0
3590 20.1368 30.5957 0
4286 21.4094 31.1125 0
4070 21.2255 29.9749 0
1372 22.2648 30.5481 0
3649 23.2151 30.002 0
1537 24.2354 30.2752 0
2590 25.5543 30.5701 0
1912 3.03289 31.8676 0
6076 4.58371 32.1526 0
550 5.7386 32.1349 0
3925 6.79496 31.7797 0
911 6.1805 33.0887 0
1938 7.52692 32.5636 0
2403 8.63241 32.3734 0
779 9.69055 32.3238 0
3930 10.9965 32.6159 0
402 12.7868 31.6795 0
3785 13.508 32.5365 0
577 13.8155 31.4762 0
5960 15.9807 33.3829 0
2234 17.2371 33.3963 0
1101 17.7275 32.3578 0
6823 20.0399 31.7173 0
565 19.1557 32.6194 0
91 21.1398 32.0793 0
364 22.2826 31.7829 0
5385 22.4885 32.9968 0
6025 23.3317 32.2748 0
2418 23.2464 31.144 0
1968 24.2997 33.1227 0
703 24.6144 31.2359 0
4700 24.2442 48.8459 0
4312 25.6589 40.3954 0
5754 3.59132 32.7541 0
2493 5.14093 33.0882 0
5558 4.19217 33.6485 0
3678 6.32095 34.283 0
5827 7.24536 33.6774 0
1904 8.40711 33.5166 0
5785 9.66077 33.4853 0
4364 10.0774 34.5767 0
426 8.9305 34.7776 0
3456 10.8208 33.8166 0
892 11.8237 33.8495 0
4078 12.2222 32.6052 0
5670 12.5594 34.9139 0
494 12.858 33.7045 0
2145 13.9164 33.5296 0
5851 14.8041 32.8669 0
2273 14.8682 35.3633 0
533 14.7083 34.3127 0
6464 17.6477 34.9171 0
5856 16.7782 34.2563 0
3366 18.2761 33.3881 0
2645 18.6097 34.4638 0
3817 20.381 32.8804 0
2730 19.4616 33.7988 0
2811 20.6001 34.0415 0
1495 21.3944 33.3587 0
563 22.2801 34.0121 0
1927 23.3831 33.7459 0
4309 25.0155 33.9042 0
1109 25.2177 32.5158 0
2745 26.0395 33.782 0
3910 3.7965 34.6929 0
332 5.27622 34.1135 0
883 4.79354 35.2277 0
2115 5.92433 35.282 0
89 6.89796 36.72 0
2692 7.27711 34.8875 0
6103 8.19517 35.5099 0
6015 7.9951 36.5483 0
711 10.417 35.8454 0
910 11.3165 34.8259 0
6719 11.5022 36.0318 0
436 12.5137 36.4452 0
241 13.7144 34.5454 0
6046 15.7892 34.7127 0
2827 16.6786 35.4036 0
6058 17.6572 36.2067 0
641 17.7837 37.247 0
6603 19.7259 34.9449 0
1036 21.4339 34.8069 0
2170 20.6232 35.5154 0
1184 22.6444 35.2798 0
2411 23.9527 34.6241 0
2673 25.3879 34.9596 0
1058 23.6915 35.7987 0
1926 25.0909 21.2668 0
2353 3.79835 35.9939 0
3615 5.30995 36.1463 0
2209 6.41799 37.9398 0
3360 5.78093 37.0372 0
200 8.70321 37.3827 0
6328 9.22721 35.7696 0
3643 9.67396 37.9505 0
586 10.6502 36.8743 0
559 13.5003 36.9528 0
695 14.5551 36.3926 0
818 13.5601 35.8809 0
302 15.9067 36.3224 0
1138 16.5222 38.3908 0
6486 18.7725 36.8188 0
6384 18.5984 35.5566 0
3963 19.5241 36.118 0
2312 20.6031 36.586 0
5943 21.9627 36.9768 0
876 21.7327 35.9472 0
571 22.8114 36.3836 0
6461 24.7778 36.1645 0
485 25.8215 35.902 0
2683 24.8151 37.4346 0
4937 25.8143 36.901 0
5891 3.11361 36.8052 0
6416 3.79248 37.7201 0
6148 4.45142 36.9826 0
631 5.34629 38.1635 0
140 7.58473 38.6999 0
6921 7.73683 37.5866 0
4655 8.21677 39.6355 0
6405 8.79453 38.559 0
2444 11.7073 37.0653 0
2003 10.7749 37.9795 0
4360 11.8289 38.3024 0
6006 12.642 37.6716 0
734 13.975 37.9736 0
786 12.9625 38.7082 0
3998 15.0139 37.5296 0
1925 15.0278 38.5452 0
6516 16.8454 36.7298 0
434 16.0186 37.3963 0
4601 17.904 38.2315 0
6793 19.8156 37.2749 0
6962 20.0081 38.3441 0
1608 20.9236 37.6121 0
664 22.0236 38.0284 0
811 22.9038 37.4754 0
584 22.818 38.6675 0
2274 23.8069 36.894 0
2663 24.7699 38.6051 0
5598 5.01208 4.49205 0
2449 3.19069 38.8225 0
373 4.44501 38.6343 0
503 5.33762 39.2962 0
5079 6.00948 40.1121 0
1835 6.35463 39.1125 0
5179 7.05637 39.9361 0
4593 6.81702 40.9525 0
6756 10.0181 39.0475 0
894 9.31347 39.8163 0
1804 11.0528 39.1787 0
2525 12.0257 39.5772 0
2496 11.4242 40.7923 0
499 13.3 39.8678 0
748 14.0732 39.1463 0
3596 14.2961 40.2765 0
1812 15.211 39.5163 0
6826 17.4609 39.8823 0
899 18.6599 38.9775 0
2678 18.9642 37.8956 0
2232 19.6381 39.5476 0
6381 21.1523 38.6109 0
5768 22.009 39.2852 0
6599 23.0036 39.815 0
2930 23.7943 39.1646 0
2442 24.7042 39.8171 0
678 23.8711 38.042 0
6088 25.7342 39.2498 0
6182 3.90505 39.6036 0
6948 4.87604 40.3603 0
615 5.67549 41.1763 0
3365 6.21202 42.085 0
6977 7.47792 42.5155 0
5817 8.22352 40.7531 0
2632 8.33385 41.778 0
3537 9.44974 40.913 0
6108 10.5672 40.0796 0
3624 10.4984 41.3507 0
764 11.4771 41.8491 0
2213 12.4243 40.7466 0
2523 14.5845 41.3381 0
6219 13.6696 42.3034 0
542 15.3595 40.6334 0
2578 15.5926 41.7546 0
1110 16.2874 39.5079 0
193 18.1767 40.6863 0
2481 18.945 41.657 0
3898 20.7774 39.6185 0
6400 20.6828 40.6803 0
1440 21.7693 40.3016 0
7175 22.7645 40.9945 0
861 23.7788 40.5367 0
6903 24.7279 40.8829 0
490 2.86201 41.6462 0
6997 3.39352 40.5861 0
3948 4.19573 41.2874 0
264 5.0005 42.089 0
3126 5.62113 42.9763 0
2092 6.71953 43.2011 0
7086 8.73251 42.761 0
6694 9.48534 41.8887 0
648 10.4243 42.3991 0
2304 11.9537 42.802 0
5920 12.6553 41.9705 0
6736 13.0363 43.0659 0
829 14.6894 42.5506 0
544 16.7676 41.9037 0
2366 16.4522 40.5834 0
2019 17.8235 41.798 0
2044 20.0426 41.5963 0
1215 19.4194 40.6739 0
2647 18.8891 42.7027 0
2528 19.9618 42.6461 0
144 21.1504 42.458 0
626 22.2002 42.0834 0
1163 21.8062 43.2804 0
3098 23.4928 41.8339 0
1730 24.4901 41.98 0
3317 26.0166 43.7077 0
520 3.98613 44.4087 0
666 3.37262 43.4305 0
6754 3.80702 42.2003 0
727 5.14805 44.9785 0
1074 4.85159 43.6831 0
6530 7.85739 43.5705 0
6757 5.85271 44.1083 0
1882 6.83448 44.3645 0
6908 9.08104 44.3012 0
2027 9.81176 43.2618 0
479 10.8917 43.3975 0
6616 10.2771 44.3015 0
6644 12.0993 43.9838 0
6674 13.2757 44.12 0
2029 14.0544 43.3702 0
3741 15.2563 43.6184 0
1104 16.0143 42.8945 0
5209 15.7436 44.7407 0
2253 17.4444 42.8461 0
5275 18.2543 43.5844 0
926 19.4298 43.5661 0
1579 20.579 43.4641 0
2335 20.204 44.5831 0
3160 21.32 44.2045 0
675 22.6049 43.9967 0
1447 22.7744 42.9696 0
780 23.5713 43.8804 0
2818 25.3874 42.6408 0
3124 23.8293 42.8902 0
6733 24.7687 43.5303 0
1141 3.45631 45.5297 0
1266 4.37743 45.9687 0
1127 5.42952 46.1356 0
261 6.18828 45.2071 0
6387 7.81748 44.7111 0
183 7.11369 45.5498 0
5895 8.17368 45.7546 0
5953 9.24838 45.4313 0
335 10.4452 45.4965 0
6609 11.287 44.6549 0
2951 12.3329 45.0785 0
3650 13.4462 45.2841 0
7057 14.689 45.3712 0
6594 14.4504 44.3367 0
886 16.2582 46.2349 0
1396 16.7914 45.2656 0
6568 16.446 43.8084 0
650 17.3489 46.1782 0
1082 17.531 44.4208 0
6156 18.9943 44.6013 0
6212 18.2669 46.8612 0
553 21.0462 45.2767 0
2275 22.1619 44.9813 0
6048 23.2404 44.9475 0
2753 24.3145 44.7943 0
760 3.39879 46.7729 0
394 4.6045 46.9886 0
6810 3.58141 47.9069 0
6111 6.48973 46.3817 0
1900 5.67202 47.2227 0
3049 7.48896 46.6532 0
5740 9.62954 46.3843 0
738 10.6744 46.6834 0
155 11.5221 45.999 0
6912 12.1332 46.9063 0
2101 12.6927 46.0547 0
1259 13.9232 46.5428 0
1030 13.0838 47.466 0
1013 15.0742 46.4079 0
1986 15.6857 47.2938 0
6446 17.0362 47.2055 0
5485 19.4573 46.9214 0
5586 20.531 46.2738 0
1453 19.6461 45.6734 0
572 20.8265 47.3753 0
6169 22.6793 45.9734 0
5850 22.4561 47.3497 0
6435 21.5999 46.3139 0
6360 23.4226 46.7632 0
6587 23.8653 45.771 0
1700 25.0223 45.7912 0
2133 24.7734 2.8194 0
6584 2.82451 48.7033 0
1726 4.19349 48.9713 0
4785 4.84809 48.0863 0
6157 6.15351 48.3937 0
5879 6.81566 47.4439 0
608 8.55961 46.8073 0
4580 9.09884 48.2196 0
3552 9.88426 47.5442 0
1174 10.9596 47.8553 0
6825 12.1258 47.9773 0
411 13.8088 48.3287 0
6441 14.6417 47.4742 0
4847 15.324 48.4255 0
828 17.4094 48.4117 0
1361 18.378 48.0731 0
4471 20.0255 48.0436 0
5520 20.8045 48.8724 0
981 21.8285 48.3731 0
6696 23.1595 48.3931 0
4699 24.0332 47.6984 0
481 24.6913 46.932 0
1333 25.1741 47.9063 0
1542 2.98028 49.7367 0
4158 2.93688 9.55038 0
6085 5.26064 49.0404 0
6131 6.27566 49.4328 0
2585 7.18813 48.4199 0
7034 7.97935 47.7145 0
2373 23.5727 3.2686 0
3350 8.25102 48.9247 0
5908 11.476 48.8605 0
551 10.3243 48.5895 0
3630 2.8254 20.1586 0
502 12.0612 49.7828 0
4671 12.6491 48.8403 0
802 21.783 49.4736 0
1704 14.621 49.1391 0
2893 19.9779 49.5655 0
1233 16.417 48.1209 0
5923 17.0299 49.4639 0
5648 18.2244 49.1202 0
6777 19.2552 48.8757 0
5588 18.9132 49.9618 0
2166 26.1465 25.6355 0
3572 10.5867 49.8226 0
5207 25.8223 11.3559 0
6097 6.75863 3.00545 0
444 2.88646 27.7207 0
1964 5.2356 2.87517 0
256 26.2792 10.2225 0
1619 26.1664 45.6539 0
6558 3.03821 34.0155 0
2364 25.9893 17.2275 0
3315 26.2434 5.58258 0
2580 26.2328 13.2786 0
1368 2.90942 44.4215 0
5746 8.28839 49.9838 0
595 7.8887 2.73305 0
224 3.38338 51.0772 0
3803 20.8006 50.132 0
4958 26.0194 79.5065 0
7076 6.4471 50.5256 0
4768 5.20955 50.3253 0
498 3.04917 86.8011 0
1573 8.70786 51.1015 0
325 9.54365 50.388 0
6721 10.6449 50.9313 0
6668 11.7736 50.86 0
147 12.9336 50.4018 0
5791 13.7881 51.0895 0
6753 14.5849 50.363 0
6576 15.1793 51.8998 0
950 15.6545 50.7045 0
1084 16.6849 50.4425 0
1264 17.4643 51.256 0
2360 18.5946 50.9977 0
938 19.6549 51.7458 0
4595 20.7668 51.2319 0
1655 21.5097 52.0895 0
1281 22.3682 51.5874 0
4470 2.90174 91.2201 0
7188 23.7397 50.4537 0
2080 2.79606 66.4675 0
6158 25.4325 50.9189 0
3800 3.27159 96.7348 0
1618 4.13434 52.356 0
6229 4.65916 51.4283 0
1042 8.03182 51.8784 0
6109 6.62868 51.6528 0
1260 5.61048 52.0928 0
6923 7.54927 50.9047 0
1425 9.03953 52.2956 0
3641 9.74155 51.5601 0
1481 10.8313 51.9927 0
1787 13.0675 52.6304 0
1417 12.7752 51.5966 0
1531 11.9274 52.1668 0
7121 14.1619 52.1339 0
6163 16.1708 52.7198 0
7049 15.2662 53.2356 0
5949 16.1648 53.7905 0
4722 16.4262 51.5745 0
5818 17.1934 52.3395 0
3323 18.4964 52.0587 0
1734 19.5375 52.7791 0
2502 20.4876 52.3791 0
2973 22.5398 52.7065 0
1258 23.3951 51.8921 0
555 24.4624 51.6076 0
2630 25.4467 52.0232 0
6213 26.3247 52.8848 0
6887 3.29907 54.6294 0
2334 4.053 50.1533 0
6591 3.74573 53.4922 0
925 7.09479 52.6058 0
6871 6.07452 53.2249 0
3404 8.13065 52.9437 0
1794 10.0223 52.7187 0
488 9.12946 53.3265 0
6487 10.0438 53.7652 0
552 11.0559 53.0372 0
6610 12.2098 53.3665 0
785 13.1382 54.2065 0
684 13.9702 53.3368 0
6859 14.1182 54.5643 0
7189 15.1297 54.3518 0
6961 16.0402 54.8086 0
601 17.1849 53.6341 0
1069 17.1497 54.8329 0
4826 18.2394 53.1704 0
1191 19.2775 53.9065 0
6690 20.4136 53.5869 0
1644 21.4611 53.0913 0
6364 23.2901 53.5545 0
1183 22.3286 53.9327 0
6775 24.1376 52.6894 0
983 24.396 53.8085 0
2670 25.2936 53.22 0
1130 2.67649 70.933 0
487 4.4491 54.3349 0
1235 3.0274 56.0825 0
6462 4.16073 55.3527 0
184 5.01842 53.3396 0
7054 7.04137 53.8935 0
6317 6.00556 54.3117 0
1740 7.14476 54.9835 0
885 8.06261 54.1245 0
6362 9.03934 54.5663 0
993 11.0224 54.2336 0
4435 10.1642 55.0777 0
6586 12.0997 54.4054 0
348 13.2734 55.4049 0
6596 13.9403 56.2045 0
3529 14.9193 55.6523 0
7200 15.9321 56.1499 0
830 17.017 55.828 0
2699 18.1555 55.5294 0
6707 18.2293 54.215 0
5855 18.9806 54.9078 0
1378 20.2001 54.6555 0
6626 21.3073 54.2032 0
3364 20.7368 55.6164 0
1709 21.7334 55.1328 0
1375 22.763 54.8949 0
1193 24.1592 55.5199 0
725 25.3625 54.2633 0
6993 25.3319 55.5437 0
20 3.86463 56.7593 0
7113 4.87264 56.2297 0
6631 5.20199 55.2376 0
6251 6.29499 55.4723 0
1102 8.17275 55.3078 0
6262 7.3701 56.1502 0
6784 8.58102 56.6164 0
2627 9.24177 55.7328 0
3386 10.651 56.0461 0
1324 11.8976 56.225 0
6985 11.3651 55.2221 0
756 12.9956 56.7236 0
6344 14.0823 57.4314 0
1168 14.9278 56.6841 0
633 17.0069 57.3181 0
220 18.6993 56.4074 0
4615 19.3359 57.1827 0
6966 19.694 55.8883 0
1485 20.1908 57.8652 0
1150 20.5516 56.8316 0
6208 21.5434 56.2505 0
6193 22.5966 56.0035 0
796 22.5832 57.1381 0
6901 23.5801 56.4937 0
1196 24.7636 56.4822 0
6489 25.7701 56.4632 0
5671 3.7712 57.8238 0
4821 4.8175 57.3369 0
446 5.89297 56.6479 0
465 6.90491 57.1916 0
6040 7.96855 57.506 0
530 9.81824 56.6987 0
535 9.13724 57.6546 0
5962 11.0345 57.0728 0
2741 10.264 57.8249 0
1044 12.1758 57.2827 0
3199 12.4792 58.8914 0
3196 13.055 57.7837 0
2677 15.0933 57.8207 0
1469 18.0599 57.3682 0
1189 16.2415 58.195 0
3133 17.5832 58.3972 0
1179 18.7599 58.2375 0
6237 18.7051 59.2942 0
6716 19.9249 59.0166 0
736 20.9667 58.6887 0
3155 22.0353 58.5224 0
6356 21.5558 57.4858 0
6601 23.0497 58.2131 0
2754 24.1364 57.7215 0
5511 2.70133 82.6522 0
5247 25.2096 57.3975 0
1056 24.837 58.6175 0
6965 2.63942 58.3269 0
2504 3.70737 58.9699 0
3533 4.71719 58.3803 0
1201 5.76175 59.022 0
1473 5.91156 57.8 0
5449 7.15665 58.3204 0
5451 8.28216 58.564 0
6379 9.45712 58.8268 0
4886 11.551 58.1233 0
2530 10.7722 58.9415 0
4729 11.7194 59.7195 0
1039 13.6258 58.6765 0
3270 14.3607 59.4205 0
6334 15.3203 59.1015 0
1451 14.0196 60.4704 0
952 15.1368 60.3786 0
126 16.5868 59.1419 0
6693 17.6401 59.5 0
3245 19.5994 60.0209 0
3369 20.6111 59.8579 0
3698 21.7271 59.5591 0
2984 22.8713 59.3892 0
1445 23.6761 60.1518 0
683 23.8953 58.9474 0
1041 24.8264 59.7753 0
2963 25.9807 59.3857 0
6659 3.71761 60.0967 0
196 4.60204 59.5008 0
1246 4.78537 60.5302 0
1412 5.69667 60.1073 0
1192 6.77452 59.9986 0
1826 8.77059 59.6399 0
1642 7.58876 59.3664 0
3548 9.81908 59.8183 0
1431 9.99187 61.0532 0
7070 8.97709 60.8198 0
186 10.7635 60.2508 0
1718 11.9513 60.8186 0
3385 13.1381 59.8206 0
1432 13.8651 61.9709 0
1660 14.7338 61.3035 0
1475 16.096 60.9302 0
1404 16.9037 61.7586 0
866 16.9911 60.4312 0
5982 18.0975 61.52 0
613 18.6165 60.5412 0
6880 20.2849 60.9244 0
162 19.3136 61.2481 0
1848 21.3799 60.7323 0
740 22.2305 61.5611 0
3026 22.3858 60.4214 0
3101 23.4015 61.1756 0
1407 24.5388 60.9693 0
1691 25.6263 60.5316 0
929 2.9074 62.1275 0
1265 3.85183 61.4518 0
6794 4.88929 61.9429 0
1607 5.61724 61.1324 0
54 6.81071 61.065 0
699 7.76255 60.4403 0
7035 7.95695 62.819 0
1018 8.0866 61.5725 0
143 9.12104 62.354 0
3581 10.3218 62.2253 0
3714 11.2353 62.9099 0
3300 9.93163 63.2603 0
789 11.0092 61.4586 0
29 13.0237 61.0772 0
1304 12.0051 62.0494 0
1592 13.078 62.6313 0
1480 14.8845 62.3279 0
1505 15.5956 63.0656 0
1144 15.9242 61.9486 0
927 16.7983 62.7936 0
486 17.8521 62.5826 0
1621 18.8832 62.3057 0
1435 20.0508 62.1177 0
1868 19.7029 63.0457 0
1822 21.122 61.7274 0
2631 20.8027 62.8389 0
3405 21.9032 62.6314 0
1915 23.0386 62.3207 0
2614 24.102 62.0001 0
367 26.0155 62.6296 0
5389 25.308 61.7624 0
4718 4.04256 62.7787 0
4463 5.17451 62.9075 0
970 4.83911 63.9106 0
4887 6.09538 61.9715 0
5124 5.90811 63.7574 0
6848 6.84668 63.1677 0
7169 7.16913 62.1451 0
5471 8.8914 63.5728 0
5607 9.81586 64.3579 0
4529 10.9069 64.1478 0
4568 12.2829 63.3547 0
1982 13.2764 63.6626 0
1533 13.9892 64.5205 0
1732 14.4613 63.3785 0
3305 15.1625 64.2005 0
1263 16.3232 63.9332 0
1830 17.4578 63.6406 0
6888 18.6361 63.3403 0
1671 19.3884 64.1259 0
6126 21.6965 63.7595 0
5422 20.4979 63.8885 0
1519 22.8493 63.3682 0
1778 23.9268 63.1504 0
1590 24.7534 63.9798 0
1250 23.5954 64.1732 0
1411 24.9657 62.7755 0
6549 25.8115 63.7225 0
1448 3.6534 63.8756 0
7108 4.54287 64.8781 0
907 5.77994 64.8102 0
1091 6.86555 64.6629 0
660 8.82901 64.8032 0
6928 7.84218 65.2658 0
1257 7.91137 64.1232 0
6734 9.59876 65.5382 0
708 10.5946 65.1749 0
5073 11.8866 64.9176 0
1534 12.4446 65.8055 0
2903 12.9782 64.7244 0
3509 13.6447 65.6996 0
3718 14.8141 65.4218 0
7217 17.1648 64.7651 0
3734 15.8648 64.9759 0
5233 18.2945 64.4816 0
1959 17.9629 65.5968 0
5041 19.0077 65.2574 0
994 20.1003 65.0746 0
5993 21.26 64.8794 0
1249 22.4576 64.4004 0
1587 23.2433 65.3133 0
2450 22.1874 65.5094 0
1553 24.4091 64.9917 0
2425 25.522 64.7463 0
1581 4.51342 66.8946 0
7166 3.89233 65.946 0
2829 5.15826 65.8968 0
5473 6.14377 66.4255 0
2301 7.30247 66.3263 0
6525 8.354 66.2364 0
1696 9.25086 66.6403 0
3777 9.88355 67.5848 0
4792 8.7888 67.5819 0
6257 10.3486 66.4616 0
4398 10.9877 67.4594 0
6706 11.3881 66.163 0
6232 12.1812 66.9438 0
6089 13.2471 66.6881 0
3215 14.3788 66.4785 0
6894 15.4587 66.2169 0
3538 16.8579 65.8634 0
7114 16.6785 66.9887 0
3131 17.8682 66.6151 0
1627 18.9176 66.4859 0
6739 19.8922 66.2381 0
1442 19.6937 67.3097 0
1557 20.8953 65.8743 0
1478 21.8654 66.4786 0
2994 20.7887 66.912 0
237 22.995 66.395 0
3181 23.9948 66.0985 0
3429 25.2249 65.6968 0
3547 26.3276 84.3997 0
3673 25.0528 66.8495 0
6643 3.07281 68.4049 0
7204 5.52996 67.2728 0
1194 5.70721 68.3329 0
6963 4.33633 68.1029 0
1459 6.74014 67.2989 0
1833 6.88362 68.4106 0
1400 7.7311 67.7673 0
4741 8.29108 68.7169 0
1392 9.57774 68.6814 0
3516 10.9797 68.5378 0
1724 11.8916 68.058 0
1551 12.8371 68.9232 0
5535 12.9965 67.8335 0
1321 14.0343 67.5033 0
6972 13.8277 68.5651 0
1690 14.9231 68.2525 0
4698 15.1866 67.2312 0
6649 16.0011 67.9895 0
3266 18.4523 67.4706 0
1434 17.3925 67.7763 0
1775 19.5015 68.4695 0
1920 20.6553 67.9837 0
3202 21.6502 67.6197 0
3325 22.7082 67.4582 0
5166 23.5191 68.3614 0
5193 23.8381 67.1905 0
3231 24.6781 67.9728 0
1741 25.8972 67.9186 0
6347 3.89331 69.1334 0
159 5.25074 69.4009 0
6474 6.4199 69.4987 0
320 6.85199 70.4421 0
7197 7.45644 69.3269 0
3330 8.85657 69.6158 0
1567 10.2886 69.6396 0
6575 11.3682 69.8605 0
6786 12.4093 69.8908 0
4754 13.5033 69.8037 0
6483 14.4377 69.3809 0
1474 15.834 69.1734 0
1640 16.8495 68.6437 0
3464 18.3218 68.5462 0
630 20.5091 69.2381 0
6611 21.4312 68.6386 0
6692 21.1527 70.1628 0
242 22.1272 69.6263 0
5568 22.5179 68.4952 0
5570 23.2676 69.4813 0
1860 24.3142 69.2137 0
5030 25.4192 68.8262 0
1313 2.71492 69.501 0
3562 14.73 97.0964 0
2971 3.60041 70.2299 0
2065 3.91534 71.317 0
697 4.65178 70.4069 0
1483 5.31071 71.3929 0
3489 5.80085 70.4873 0
69 6.44075 71.5218 0
6203 8.05516 70.4968 0
4175 7.58788 71.4695 0
123 9.52574 70.6919 0
2923 8.65924 71.4802 0
1598 10.0181 71.6759 0
157 10.6542 70.7338 0
6774 11.7215 70.8347 0
5083 11.1647 71.7399 0
7153 12.7725 70.869 0
4540 12.2991 71.7853 0
5482 13.9104 70.7276 0
6770 13.4959 71.7905 0
6529 14.6942 71.3561 0
7080 15.2925 70.1962 0
1300 15.6887 71.5506 0
6762 16.8911 69.7299 0
6524 16.6794 71.0765 0
7145 18.0162 69.9127 0
4209 17.8946 71.001 0
7202 19.0111 69.3618 0
3474 19.7636 70.3028 0
1277 20.356 71.2829 0
6297 23.0957 70.7301 0
7164 21.8831 71.3622 0
578 22.8833 71.7676 0
7085 25.1942 69.8026 0
643 24.1791 70.3023 0