ITEM: TIMESTEP
500
ITEM: NUMBER OF ATOMS
7999
ITEM: BOX BOUNDS pp pp pp
-0.00134015 20.647
-0.0232121 357.617
-0.5 0.5
ITEM: ATOMS id x y z type 
3707 0.103864 1.98959 0 1 
3708 0.135559 2.98752 0 1 
3761 0.79163 357.561 0 1 
3762 1.06609 1.75996 0 1 
3810 1.26119 0.828632 0 1 
3811 2.11277 1.37424 0 1 
3854 2.64076 0.243258 0 1 
3855 3.40234 0.995053 0 1 
3892 4.17984 0.40938 0 2 
3923 5.18206 357.542 0 2 
3924 5.0453 1.04948 0 2 
3950 6.23968 357.055 0 1 
3951 6.08787 0.469546 0 1 
3971 8.163 357.51 0 1 
3972 7.09225 0.156151 0 1 
3986 9.19503 357.283 0 1 
3987 9.84922 0.473118 0 1 
3995 10.0909 356.912 0 1 
3996 10.7987 0.204959 0 1 
3999 11.2929 356.988 0 1 
4000 11.5943 0.764729 0 1 
4002 12.2209 357.532 0 1 
4003 12.4191 1.26834 0 1 
4011 13.0919 0.502313 0 1 
4012 12.4566 2.30702 0 1 
4026 13.3179 1.71534 0 1 
4025 14.0506 0.950367 0 1 
4045 15.024 1.08547 0 2 
4046 14.3174 1.88153 0 2 
4071 16.022 1.35426 0 2 
4072 15.2953 2.15554 0 2 
4104 16.2279 2.57893 0 1 
4103 16.951 1.78252 0 1 
4139 17.95 2.04875 0 1 
4181 18.8159 1.24145 0 1 
4182 18.9087 2.33012 0 1 
4230 19.7248 1.6802 0 1 
4231 19.8282 2.66738 0 1 
3709 20.1586 3.71581 0 1 
3763 1.06901 2.74471 0 1 
3764 1.7723 3.50302 0 1 
3812 2.0611 2.47514 0 1 
3813 2.85191 3.08922 0 1 
3856 2.95132 1.9561 0 1 
3893 4.1831 1.63265 0 2 
3857 3.83849 2.66753 0 1 
3894 4.93047 2.37982 0 2 
3925 5.80517 1.73004 0 2 
3926 5.69525 3.02296 0 2 
3953 6.73163 2.55233 0 1 
3952 6.87106 1.31458 0 1 
3973 8.8834 0.710875 0 1 
3974 7.90469 0.95823 0 1 
3988 8.68676 1.73512 0 1 
3997 9.69297 1.56795 0 1 
3989 9.19314 2.54934 0 1 
4001 10.565 2.36959 0 1 
4004 10.6798 1.37061 0 1 
4005 11.5548 2.96473 0 1 
4013 11.4943 1.92628 0 1 
4028 12.5982 3.41701 0 1 
4014 11.791 4.10287 0 1 
4027 13.4098 2.77877 0 1 
4047 14.3845 2.93854 0 2 
4048 13.5576 3.76351 0 1 
4074 14.5085 4.02535 0 2 
4073 15.2894 3.31432 0 2 
4105 16.4077 3.59509 0 1 
4106 15.5526 4.3623 0 2 
4140 17.1921 2.81412 0 1 
4141 17.3919 3.88797 0 1 
4183 18.1294 3.12571 0 1 
4184 18.3943 4.17908 0 1 
4232 19.1479 3.44143 0 1 
4233 19.346 4.45178 0 1 
3710 0.817942 3.72286 0 1 
3651 20.3168 4.69267 0 1 
3711 0.633383 4.85142 0 1 
3765 1.55713 4.53037 0 1 
3766 2.32019 5.17278 0 1 
3814 2.58043 4.17215 0 1 
3815 3.34913 4.81406 0 1 
3858 3.70019 3.79066 0 1 
3859 4.37884 4.52441 0 2 
3895 4.64792 3.32655 0 2 
3896 5.31539 4.12271 0 2 
3927 6.3446 3.80645 0 1 
3954 7.66819 2.0236 0 1 
3955 7.12562 4.51922 0 1 
3975 8.18665 2.85786 0 1 
3976 7.33461 3.46956 0 1 
3990 8.95859 3.56074 0 1 
3998 9.91914 3.21364 0 1 
4006 10.8738 3.66129 0 1 
4007 10.2089 4.34889 0 1 
4015 11.0991 4.93438 0 1 
4029 12.8659 4.44361 0 1 
4030 12.1097 5.0869 0 1 
4049 13.9016 4.80965 0 2 
4050 13.0498 5.5166 0 1 
4076 14.0388 5.83881 0 2 
4075 14.8443 5.11795 0 2 
4107 15.8088 5.42461 0 1 
4142 16.5507 4.63654 0 1 
4143 16.7491 5.65158 0 1 
4185 17.5694 4.96264 0 1 
4186 17.8156 5.94014 0 1 
4234 18.5766 5.18078 0 1 
4235 18.8791 6.1519 0 1 
4284 19.6061 5.45716 0 1 
3652 20.6755 5.66585 0 1 
3653 20.1668 7.43735 0 1 
3712 1.28644 5.57034 0 1 
3713 0.527694 6.51262 0 1 
3767 2.03701 6.15661 0 1 
3768 2.68667 6.91461 0 1 
3816 3.05675 5.87872 0 1 
3817 3.71214 6.65837 0 1 
3860 4.04666 5.55299 0 2 
3861 4.82718 6.22737 0 2 
3928 6.16996 4.84627 0 1 
3897 5.12946 5.32684 0 2 
3898 5.97729 5.9165 0 2 
3929 6.90047 5.62604 0 1 
3956 7.87821 5.20868 0 1 
3957 7.21408 6.63215 0 1 
3978 8.13712 6.3759 0 1 
3977 8.15478 4.21544 0 1 
3991 9.27102 4.52043 0 1 
3992 9.01133 5.48533 0 1 
4008 10.1529 5.40552 0 1 
4017 10.5939 6.47757 0 1 
4016 11.425 5.90437 0 1 
4031 12.3559 6.27029 0 1 
4032 11.5188 7.00172 0 1 
4052 12.4583 7.3416 0 1 
4051 13.3432 6.50487 0 1 
4077 14.3386 6.89082 0 2 
4078 13.4814 7.61875 0 2 
4108 15.0813 6.15907 0 2 
4109 15.3711 7.27556 0 2 
4144 16.0486 6.48035 0 1 
4145 16.3036 7.52382 0 1 
4187 17.0641 6.60729 0 1 
4188 17.3776 7.62791 0 1 
4236 18.1046 6.88034 0 1 
4285 19.9187 6.46351 0 1 
4286 19.0969 7.11727 0 1 
3654 0.504533 7.46041 0 1 
3655 0.0619022 8.30543 0 1 
3715 1.12665 8.2186 0 1 
3714 1.50826 7.08804 0 1 
3769 2.16854 7.87954 0 1 
3818 3.35489 7.74598 0 1 
3819 4.02054 8.47232 0 2 
3862 4.34021 7.48266 0 2 
3863 5.05139 8.19229 0 2 
3899 5.28365 7.13267 0 2 
3900 6.00845 7.97841 0 1 
3930 6.25756 6.98755 0 1 
3931 6.93009 7.75964 0 1 
3958 7.93115 7.42591 0 1 
3959 7.80213 8.45102 0 1 
3979 8.93402 7.2112 0 1 
3980 8.83882 8.2351 0 1 
3993 9.58501 6.33728 0 1 
3994 9.86148 8.18179 0 1 
4009 9.95336 7.27134 0 1 
4018 10.8144 7.80602 0 1 
4019 10.6817 8.96791 0 1 
4033 11.8336 8.21502 0 1 
4034 11.7237 9.21933 0 1 
4054 12.6776 9.53789 0 1 
4053 12.7771 8.47281 0 1 
4079 13.7703 8.69132 0 2 
4110 14.5633 7.99601 0 2 
4111 14.7742 8.9809 0 2 
4146 15.6169 8.31315 0 2 
4147 15.9962 9.3764 0 1 
4189 16.6442 8.55384 0 1 
4190 17.0926 9.56795 0 1 
4238 17.7085 8.72703 0 1 
4237 18.3743 7.90104 0 1 
4287 19.3268 8.05917 0 1 
4288 18.7812 8.93123 0 1 
4339 19.8742 8.85635 0 1 
3595 20.3756 9.68386 0 1 
3656 0.707198 9.24024 0 1 
3657 0.493506 10.3185 0 1 
3716 1.84105 8.89992 0 1 
3717 1.52598 9.94584 0 1 
3770 2.83983 8.64743 0 1 
3771 2.60252 9.6513 0 1 
3820 3.59959 9.43595 0 1 
3821 4.33739 10.27 0 2 
3864 4.67982 9.16833 0 2 
3865 5.35861 9.92042 0 2 
3901 5.75118 9.02303 0 2 
3902 6.44438 9.75065 0 1 
3932 6.79394 8.73929 0 1 
3933 7.47215 9.5504 0 1 
3960 8.47182 9.24096 0 1 
3981 9.39227 9.08494 0 1 
3982 9.1414 10.1278 0 1 
4010 10.0324 9.78125 0 1 
4020 10.9684 10.1062 0 1 
4021 10.0848 10.8254 0 1 
4036 11.2628 11.0547 0 1 
4035 11.9644 10.3115 0 1 
4055 12.9925 10.5596 0 1 
4056 12.2956 11.2677 0 1 
4080 13.6727 9.69223 0 1 
4081 13.9727 10.7774 0 1 
4112 14.6898 9.98547 0 2 
4113 14.9629 11.0478 0 2 
4148 15.6068 10.3381 0 2 
4149 15.9862 11.2848 0 2 
4191 16.5995 10.4275 0 1 
4239 18.1738 9.76318 0 1 
4240 17.6226 10.5588 0 1 
4289 19.314 9.81981 0 1 
4290 18.6822 10.6961 0 1 
4340 19.9862 10.6359 0 1 
3596 0.296842 11.2782 0 1 
3658 1.2411 11.0008 0 1 
3659 0.940247 12.0596 0 1 
3597 20.6137 12.3813 0 1 
3718 2.26392 10.6661 0 1 
3719 1.94205 11.7274 0 1 
3773 2.96658 11.4349 0 1 
3772 3.288 10.4398 0 1 
3822 3.99787 11.2152 0 2 
3866 5.05783 10.9765 0 2 
3867 5.73351 11.7054 0 2 
3903 6.06705 10.7125 0 1 
3904 6.75414 11.5777 0 1 
3934 7.08899 10.5242 0 1 
3935 7.76034 11.3304 0 1 
3961 8.08891 10.3389 0 1 
3962 8.88434 11.0825 0 1 
3983 9.6238 11.8034 0 1 
3984 9.10795 12.7046 0 1 
4022 10.6474 11.8988 0 1 
4023 10.1311 12.7657 0 1 
4038 11.1261 13.0393 0 1 
4037 11.6697 12.1543 0 1 
4057 12.659 12.3588 0 1 
4058 12.0948 13.1729 0 1 
4082 13.2743 11.5591 0 1 
4083 13.6449 12.6094 0 1 
4114 14.2904 11.7809 0 2 
4115 14.6889 12.7984 0 2 
4150 15.3374 12.0598 0 2 
4151 15.7561 13.0096 0 2 
4193 16.3348 12.2629 0 1 
4192 17.0106 11.4623 0 1 
4241 18.0441 11.5328 0 1 
4242 17.3727 12.4185 0 1 
4292 18.4139 12.5128 0 1 
4291 19.0015 11.662 0 1 
4341 19.9779 11.6717 0 1 
4342 19.455 12.5504 0 1 
3598 0.737021 13.0497 0 1 
3661 1.43359 13.7716 0 1 
3660 1.66807 12.7651 0 1 
3720 2.64797 12.4498 0 1 
3721 2.40413 13.4721 0 1 
3823 4.67835 11.9987 0 2 
3774 3.65427 12.2237 0 1 
3775 3.40859 13.1918 0 1 
3824 4.47873 13.0043 0 2 
3868 5.48806 12.7323 0 2 
3869 6.19196 13.5179 0 1 
3905 6.47731 12.5341 0 1 
3906 7.14818 13.267 0 1 
3936 7.54536 12.3329 0 1 
3937 8.18687 13.0755 0 1 
3963 8.46895 11.994 0 1 
3964 9.40014 13.634 0 1 
4024 10.3908 13.7696 0 1 
4039 11.45 13.9944 0 1 
4040 10.8711 14.7887 0 1 
4059 12.4799 14.184 0 1 
4084 13.1068 13.4258 0 1 
4085 13.4637 14.3576 0 1 
4116 14.0949 13.5932 0 1 
4117 14.4841 14.5395 0 2 
4152 15.1016 13.7399 0 2 
4153 15.4738 14.7648 0 2 
4194 16.7521 13.1782 0 1 
4195 16.091 13.97 0 2 
4243 17.7582 13.3398 0 1 
4244 17.0459 14.1745 0 1 
4294 18.0554 14.3159 0 1 
4293 18.859 13.4411 0 1 
4343 20.2129 13.298 0 1 
4344 19.0344 14.4645 0 1 
3541 0.0362435 14.9908 0 1 
3599 0.371474 13.9627 0 1 
3600 1.07904 14.7066 0 1 
3662 2.14056 14.5259 0 1 
3722 3.14523 14.1984 0 1 
3723 2.86287 15.2519 0 1 
3776 4.12287 13.9774 0 2 
3777 3.8407 14.9317 0 1 
3826 4.8228 14.7596 0 2 
3825 5.15136 13.747 0 2 
3870 5.87057 14.4728 0 2 
3871 6.62304 15.2391 0 1 
3907 6.88021 14.2677 0 1 
3908 7.92537 15.0813 0 1 
3938 7.84355 14.0258 0 1 
3939 9.1844 15.4274 0 1 
3965 8.75624 14.461 0 1 
3966 10.2015 15.6102 0 1 
3985 9.85464 14.6187 0 1 
4041 11.183 15.7877 0 1 
4060 11.8665 14.9882 0 1 
4061 12.2212 15.9701 0 1 
4086 12.8453 15.1555 0 1 
4087 13.2958 16.1587 0 1 
4118 13.8437 15.3525 0 1 
4119 14.2674 16.362 0 1 
4154 14.8524 15.554 0 2 
4196 16.4985 14.9923 0 1 
4197 15.8646 15.7582 0 2 
4246 16.9071 15.9745 0 1 
4245 17.5362 15.1365 0 1 
4295 18.6553 15.42 0 1 
4296 17.9629 16.1102 0 1 
4395 20.0064 14.2449 0 1 
4345 19.6665 15.2588 0 1 
4346 19.3744 16.2552 0 1 
3542 0.544395 16.7182 0 1 
3601 0.806233 15.7098 0 1 
3602 1.55823 16.4337 0 1 
3663 1.8418 15.4535 0 1 
3664 2.55719 16.1791 0 1 
3725 3.24446 16.9478 0 1 
3724 3.58399 16.002 0 1 
3778 4.55651 15.7416 0 2 
3779 4.30698 16.7506 0 2 
3827 5.61733 15.5139 0 2 
3828 5.29691 16.4579 0 2 
3872 6.34942 16.2453 0 1 
3909 7.37672 15.9779 0 1 
3910 7.95986 16.8224 0 1 
3940 8.45131 16.0109 0 1 
3941 8.84344 17.192 0 1 
3967 9.46438 16.3743 0 1 
3968 9.88911 17.3275 0 1 
4042 10.5395 16.5484 0 1 
4043 10.9118 17.5347 0 1 
4062 11.5447 16.7175 0 1 
4063 11.9398 17.6375 0 1 
4088 12.6274 16.9163 0 1 
4089 12.946 17.918 0 1 
4120 13.6031 17.1828 0 1 
4155 15.2891 16.577 0 2 
4121 13.9493 18.1559 0 1 
4156 14.6048 17.37 0 2 
4198 16.2435 16.7318 0 2 
4199 15.6047 17.5495 0 2 
4248 16.6322 17.7432 0 1 
4247 17.252 16.9615 0 1 
4297 18.2479 17.0976 0 1 
4298 17.6963 17.9307 0 1 
4348 18.7545 18.1621 0 1 
4347 19.2313 17.2552 0 1 
4396 20.3687 16.0051 0 1 
4397 20.2203 16.9705 0 1 
3485 0.0966724 18.7341 0 1 
3543 0.324378 17.7337 0 1 
3544 1.02498 18.4307 0 1 
3603 1.32245 17.4004 0 1 
3604 2.00821 18.1752 0 1 
3665 2.27677 17.1531 0 1 
3666 2.97822 17.9414 0 1 
3726 4.00321 17.7218 0 1 
3780 5.00829 17.4277 0 2 
3781 4.72157 18.4237 0 2 
3829 6.02215 17.226 0 2 
3830 5.71514 18.2177 0 2 
3874 6.73739 17.958 0 1 
3873 7.00294 17.0167 0 1 
3911 7.93751 17.8717 0 1 
3912 8.46203 18.7556 0 1 
3942 9.1827 18.1167 0 1 
3943 9.57605 19.031 0 1 
3969 10.2116 18.2635 0 1 
4044 10.6267 19.1899 0 1 
4064 11.2744 18.4351 0 1 
4065 11.6434 19.4078 0 1 
4090 12.2765 18.6306 0 1 
4091 12.6334 19.633 0 1 
4122 13.2744 18.8855 0 1 
4123 13.6351 19.8754 0 1 
4157 14.9674 18.3475 0 2 
4158 14.2957 19.1021 0 1 
4201 15.2967 19.3307 0 2 
4200 15.9693 18.5165 0 2 
4249 16.9509 18.7131 0 1 
4250 16.3166 19.4596 0 2 
4299 17.9407 18.9144 0 1 
4300 17.3231 19.7045 0 1 
4349 18.8683 19.1413 0 1 
4398 19.9876 17.9896 0 1 
4399 19.7862 18.9685 0 1 
3486 0.388545 20.5047 0 1 
3545 0.727253 19.5357 0 1 
3546 1.40527 20.2383 0 1 
3605 1.63675 19.2081 0 1 
3606 2.41659 19.9432 0 1 
3667 2.61389 18.9399 0 1 
3668 3.39723 19.6442 0 1 
3727 3.72046 18.6914 0 1 
3728 4.40379 19.4116 0 2 
3783 5.07398 20.2334 0 2 
3782 5.38476 19.2572 0 2 
3831 6.35999 18.9656 0 1 
3832 6.05968 20.0637 0 2 
3875 7.44288 18.7278 0 1 
3876 6.98115 19.7485 0 1 
3913 7.96534 19.6113 0 1 
3944 8.93585 19.7633 0 1 
3945 10.2818 20.926 0 1 
3970 9.97874 19.9771 0 1 
3914 9.28391 20.6949 0 1 
4066 10.9967 20.1978 0 1 
4067 11.3007 21.1367 0 1 
4092 11.9997 20.4254 0 1 
4093 12.3096 21.3448 0 1 
4124 13.0208 20.6462 0 1 
4159 14.6649 20.0994 0 2 
4160 14.0025 20.8507 0 1 
4203 15.0172 21.0583 0 2 
4202 15.6736 20.2873 0 2 
4251 16.6767 20.4933 0 1 
4252 15.9837 21.274 0 2 
4302 16.9749 21.5102 0 1 
4301 17.7136 20.7493 0 1 
4350 18.3395 19.9508 0 1 
4351 18.8055 20.9042 0 1 
4400 19.347 20.0041 0 1 
4401 19.9624 20.7793 0 1 
4451 20.3342 19.7665 0 1 
3487 0.122273 21.4715 0 1 
3547 1.11725 21.2553 0 1 
3548 1.86608 21.9267 0 1 
3607 2.10845 20.96 0 1 
3608 2.82926 21.6618 0 1 
3669 3.0952 20.6462 0 1 
3670 3.80177 21.3477 0 1 
3729 4.07227 20.397 0 1 
3730 4.78843 21.1695 0 2 
3784 5.7886 21.0085 0 2 
3785 5.45272 21.9276 0 2 
3833 6.84926 20.7623 0 1 
3834 6.45642 21.7466 0 1 
3877 7.92087 20.5947 0 1 
3878 7.45591 21.5251 0 1 
3915 8.46733 21.3908 0 1 
3946 9.58554 21.6201 0 1 
3947 9.93265 22.605 0 1 
4068 10.5902 21.8545 0 1 
4069 10.9423 22.8558 0 1 
4094 11.5869 22.0958 0 1 
4095 11.9298 23.0801 0 1 
4125 13.3039 21.6136 0 1 
4126 12.6081 22.3291 0 1 
4162 13.6287 22.5426 0 1 
4161 14.338 21.8376 0 1 
4204 15.2816 22.0542 0 2 
4205 14.5856 22.8129 0 2 
4253 16.2697 22.2697 0 2 
4254 15.6237 23.0302 0 2 
4303 17.2626 22.5361 0 1 
4352 17.9072 21.7986 0 1 
4353 18.3505 22.7226 0 1 
4402 18.858 21.8779 0 1 
4403 19.4386 22.6935 0 1 
4452 19.8034 21.7172 0 1 
4453 20.4261 22.4671 0 1 
3488 0.88359 22.2503 0 1 
3489 0.57382 23.2128 0 1 
3549 1.5916 22.9596 0 1 
3550 2.25359 23.7231 0 1 
3609 2.54757 22.7024 0 1 
3610 3.19744 23.4582 0 1 
3671 3.50743 22.3994 0 1 
3672 4.14315 23.1966 0 2 
3731 4.45662 22.1586 0 2 
3732 5.11074 22.9766 0 2 
3786 6.09043 22.7427 0 1 
3836 6.80654 23.4862 0 1 
3835 7.0805 22.5251 0 1 
3879 8.01647 22.3149 0 1 
3880 7.90272 23.3163 0 1 
3916 8.97184 22.3624 0 1 
3917 9.0857 23.3239 0 1 
3948 10.195 23.5314 0 1 
4070 10.6147 24.4958 0 1 
4096 11.2512 23.7825 0 1 
4127 12.9524 23.2778 0 1 
4128 12.3157 24.0191 0 1 
4164 13.2623 24.3384 0 1 
4163 13.9079 23.5821 0 1 
4206 14.9491 23.8074 0 2 
4207 14.248 24.5784 0 1 
4256 15.2581 24.8022 0 2 
4255 15.9177 24.0466 0 2 
4304 16.5734 23.2826 0 1 
4305 16.875 24.2526 0 1 
4354 17.5278 23.492 0 1 
4355 17.8602 24.4488 0 1 
4404 18.4271 23.6906 0 1 
4405 18.8768 24.6278 0 1 
4454 19.3598 23.7088 0 1 
4505 20.287 23.4315 0 1 
3429 0.262081 24.1988 0 1 
3490 1.25085 23.9241 0 1 
3491 0.913436 24.9309 0 1 
3551 1.89716 24.7053 0 1 
3611 2.86828 24.4881 0 1 
3612 3.54514 25.2308 0 1 
3673 3.85101 24.2189 0 1 
3674 4.53539 24.957 0 2 
3733 4.78306 23.9652 0 2 
3734 5.4943 24.7464 0 2 
3787 5.80006 23.7792 0 2 
3788 6.47118 24.5224 0 1 
3837 7.44106 24.2581 0 1 
3838 7.13557 25.2227 0 1 
3881 8.5056 24.1434 0 1 
3882 8.0303 25.0223 0 1 
3918 9.52819 24.2761 0 1 
3919 8.99063 25.103 0 1 
3949 9.96677 25.2129 0 1 
4097 11.5986 24.7621 0 1 
4098 10.9035 25.4811 0 1 
4130 11.8563 25.774 0 1 
4129 12.5657 25.0552 0 1 
4165 13.6244 25.3336 0 1 
4166 12.8818 26.0449 0 1 
4208 14.6195 25.5716 0 2 
4209 13.9241 26.3188 0 1 
4257 15.5942 25.8082 0 2 
4306 16.2353 25.0472 0 2 
4307 16.5461 26.0134 0 2 
4356 17.2277 25.2005 0 1 
4357 17.5068 26.1491 0 1 
4406 18.2847 25.402 0 1 
4407 18.4477 26.3813 0 1 
4455 19.9151 24.5044 0 1 
4456 19.4852 25.4354 0 1 
4506 20.6091 25.1981 0 1 
3430 0.621094 25.9492 0 1 
3431 0.287127 26.9095 0 1 
3492 1.57589 25.7329 0 1 
3493 1.28357 26.7318 0 1 
3552 2.54498 25.4676 0 1 
3553 2.27052 26.4618 0 1 
3613 3.2199 26.193 0 1 
3614 3.92166 26.9018 0 1 
3675 4.23007 25.9461 0 2 
3676 4.93685 26.6842 0 2 
3735 5.24867 25.6757 0 2 
3736 5.96286 26.4585 0 2 
3789 6.22553 25.5098 0 1 
3790 6.97237 26.1879 0 1 
3839 7.95685 25.9858 0 1 
3884 8.6171 26.8038 0 1 
3883 9.20334 26.0462 0 1 
3920 10.129 26.1986 0 1 
3921 9.57727 27.0676 0 1 
4099 11.1659 26.4439 0 1 
4100 10.5428 27.2031 0 1 
4132 11.5313 27.4438 0 1 
4131 12.1857 26.7085 0 1 
4167 13.1851 26.9857 0 1 
4168 12.5065 27.6851 0 1 
4211 13.513 27.9264 0 1 
4258 14.9088 26.5259 0 2 
4210 14.2121 27.2156 0 1 
4259 15.2636 27.4722 0 2 
4308 15.8915 26.7492 0 2 
4309 16.2205 27.7351 0 2 
4358 16.8752 26.97 0 1 
4359 17.222 27.9008 0 1 
4408 17.8841 27.1419 0 1 
4458 18.8783 27.3204 0 1 
4457 19.3793 26.4389 0 1 
4507 20.3013 26.125 0 1 
4508 19.9565 27.181 0 1 
3432 0.97251 27.6961 0 1 
3433 0.689955 28.6427 0 1 
3495 1.68939 28.3955 0 1 
3494 1.94505 27.4327 0 1 
3554 2.93398 27.2192 0 1 
3555 2.66358 28.1364 0 1 
3615 3.67146 27.8953 0 1 
3677 4.63582 27.6423 0 2 
3678 5.34377 28.3792 0 2 
3737 5.68211 27.3993 0 2 
3738 6.34398 28.1355 0 1 
3791 6.67625 27.1597 0 1 
3792 7.35901 27.9038 0 1 
3840 7.67097 26.9731 0 1 
3841 8.66027 27.7968 0 1 
3885 9.89889 27.9792 0 1 
3886 9.18834 28.6363 0 1 
3922 10.1923 28.9254 0 1 
4101 10.8903 28.1934 0 1 
4133 11.8486 28.4444 0 1 
4134 11.2247 29.166 0 1 
4169 12.8122 28.626 0 1 
4170 12.1956 29.4269 0 1 
4213 13.1681 29.6192 0 1 
4212 13.814 28.8816 0 1 
4260 14.5412 28.1677 0 1 
4261 14.8643 29.191 0 2 
4310 15.5291 28.465 0 2 
4311 15.86 29.4158 0 2 
4360 16.5372 28.6621 0 2 
4361 16.864 29.584 0 1 
4409 18.1971 28.0886 0 1 
4410 17.5438 28.8463 0 1 
4460 18.5294 29.0312 0 1 
4459 19.5174 28.1382 0 1 
4509 20.6044 27.943 0 1 
4510 19.4737 29.1649 0 1 
4561 20.3826 28.9288 0 1 
3374 0.340321 29.6523 0 1 
3434 1.35778 29.3348 0 1 
3435 1.09661 30.3087 0 1 
3496 2.36264 29.0888 0 1 
3497 2.08308 30.058 0 1 
3556 3.37266 28.8217 0 1 
3557 3.0974 29.7961 0 1 
3616 4.36589 28.6233 0 2 
3617 4.09592 29.5663 0 1 
3679 5.11164 29.3578 0 2 
3680 5.76879 30.0922 0 2 
3739 6.0272 29.1008 0 2 
3740 6.72409 29.8531 0 1 
3793 7.04271 28.8837 0 1 
3794 7.68628 29.5996 0 1 
3842 8.0782 28.5984 0 1 
3843 8.64041 29.4078 0 1 
3887 9.56875 29.6966 0 1 
4102 10.5524 29.9004 0 1 
4135 11.52 30.1485 0 1 
4136 10.8295 30.8697 0 1 
4172 11.8305 31.0803 0 1 
4171 12.5509 30.3486 0 1 
4214 13.5381 30.6415 0 1 
4262 14.1965 29.8761 0 1 
4263 14.5025 30.8642 0 1 
4312 15.2174 30.1311 0 2 
4313 15.5369 31.0781 0 2 
4362 16.2446 30.3346 0 2 
4363 16.542 31.2569 0 2 
4412 17.2438 30.528 0 1 
4411 17.9279 29.7859 0 1 
4461 18.9476 29.996 0 1 
4462 18.2695 30.7279 0 1 
4511 19.9618 29.9733 0 1 
4512 19.4991 30.8525 0 1 
4562 0.0919156 30.5915 0 1 
3375 0.74985 31.3059 0 1 
3436 1.74843 31.0564 0 1 
3498 2.77865 30.7536 0 1 
3499 2.45274 31.7036 0 1 
3559 3.48071 31.4993 0 1 
3558 3.80504 30.5355 0 1 
3618 4.76932 30.3115 0 2 
3619 4.48146 31.23 0 2 
3681 5.50534 31.0535 0 2 
3741 6.50016 30.8076 0 1 
3682 6.17599 31.7998 0 2 
3742 7.17313 31.5824 0 1 
3795 7.48147 30.5781 0 1 
3796 8.16841 31.298 0 1 
3844 8.49983 30.35 0 1 
3845 9.0901 31.2134 0 1 
3888 9.85392 30.607 0 1 
3889 10.0761 31.5658 0 1 
4137 11.1336 31.8036 0 1 
4173 12.0993 32.1006 0 1 
4174 11.3994 32.7969 0 1 
4215 12.8141 31.3511 0 1 
4216 13.1382 32.3379 0 1 
4264 13.789 31.6086 0 1 
4265 14.1362 32.5438 0 1 
4314 14.8208 31.7928 0 2 
4315 15.1552 32.7321 0 2 
4364 15.8846 32.0377 0 2 
4414 16.8811 32.2175 0 1 
4413 17.542 31.4305 0 1 
4463 18.5204 31.6716 0 1 
4464 17.8851 32.4425 0 1 
4514 18.8977 32.6623 0 1 
4513 19.457 31.8589 0 1 
4563 20.3443 31.4727 0 1 
4564 19.9645 32.6924 0 1 
3376 0.365163 32.2413 0 1 
3377 1.07118 32.947 0 1 
3437 1.39934 31.994 0 1 
3438 2.12266 32.6802 0 1 
3500 3.12631 32.4556 0 1 
3501 2.85954 33.3959 0 1 
3560 4.17318 32.215 0 1 
3561 3.8943 33.1707 0 1 
3620 5.19646 31.9694 0 2 
3621 4.88307 32.9333 0 2 
3683 5.86986 32.7278 0 2 
3743 6.85485 32.517 0 1 
3744 7.58539 33.2311 0 1 
3797 7.89261 32.2752 0 1 
3798 8.5719 33.0306 0 1 
3846 8.99527 32.1803 0 1 
3847 9.62411 32.9852 0 1 
3890 10.4071 32.5185 0 1 
4138 10.6763 33.4579 0 1 
4175 11.7587 33.7335 0 1 
4217 12.4289 33.0123 0 1 
4218 12.7701 33.9836 0 1 
4266 13.4621 33.291 0 1 
4267 13.8105 34.218 0 1 
4316 14.4928 33.4807 0 1 
4317 14.8202 34.4415 0 2 
4366 15.485 33.6726 0 2 
4365 16.1737 32.9677 0 2 
4415 17.1907 33.1644 0 1 
4416 16.521 33.8859 0 2 
4465 18.1954 33.3374 0 1 
4466 17.4789 34.0843 0 1 
4516 18.4691 34.2764 0 1 
4515 19.439 33.5054 0 1 
4565 0.109104 33.2277 0 1 
3319 0.489634 34.8016 0 1 
3378 0.799403 33.8918 0 1 
3379 1.49892 34.5573 0 1 
3439 1.83278 33.641 0 1 
3440 2.51706 34.3847 0 1 
3502 3.48773 34.1085 0 1 
3562 4.51673 33.9455 0 2 
3563 4.15587 34.8663 0 1 
3623 5.16392 34.6551 0 2 
3622 5.52485 33.7061 0 2 
3684 6.55917 33.4606 0 1 
3685 6.20991 34.4114 0 2 
3745 7.20887 34.1889 0 1 
3746 7.92753 34.9617 0 1 
3799 8.22578 34.0307 0 1 
3800 9.28599 34.861 0 1 
3848 9.19108 33.8591 0 1 
3849 10.4286 35.1555 0 1 
3891 10.0739 34.2244 0 1 
4176 11.0295 34.4294 0 1 
4177 11.4293 35.3977 0 1 
4219 12.0636 34.6681 0 1 
4220 12.4488 35.6233 0 1 
4268 13.0854 34.9153 0 1 
4269 13.4008 35.8494 0 1 
4318 14.0866 35.1247 0 1 
4368 15.0922 35.3571 0 2 
4367 15.8117 34.6085 0 2 
4417 16.8012 34.8228 0 1 
4418 16.0742 35.5506 0 2 
4468 17.0568 35.7602 0 1 
4467 17.7606 35.0188 0 1 
4517 18.7496 35.2249 0 1 
4518 18.0205 35.9733 0 1 
4566 19.4248 34.502 0 1 
4567 20.1848 35.1127 0 1 
4617 20.3162 34.1257 0 1 
3320 0.202184 35.8047 0 1 
3321 0.827687 36.5236 0 1 
3380 1.16783 35.5608 0 1 
3381 1.84537 36.2908 0 1 
3441 2.13726 35.3229 0 1 
3442 2.87494 36.0444 0 1 
3503 3.1942 35.1005 0 1 
3504 3.86005 35.8093 0 1 
3564 4.85356 35.5714 0 2 
3565 4.55184 36.5276 0 2 
3624 5.87691 35.3548 0 2 
3625 5.58418 36.2882 0 2 
3686 6.92723 35.1697 0 1 
3687 6.59417 36.1097 0 1 
3747 7.60983 35.8979 0 1 
3801 8.61258 35.6975 0 1 
3802 9.11753 36.5884 0 1 
3850 9.71998 35.8425 0 1 
3851 10.0108 36.8869 0 1 
4178 10.7409 36.1503 0 1 
4179 11.0384 37.0741 0 1 
4221 11.7354 36.3526 0 1 
4222 12.0368 37.3204 0 1 
4270 12.6958 36.5862 0 1 
4271 13.0345 37.5338 0 1 
4320 13.6868 36.7698 0 1 
4319 14.3694 36.0353 0 1 
4369 15.3572 36.2844 0 2 
4370 14.6736 36.9905 0 2 
4419 16.3256 36.5239 0 2 
4420 15.6194 37.2775 0 2 
4470 16.6548 37.449 0 1 
4469 17.3253 36.7154 0 1 
4519 18.3117 36.8934 0 1 
4520 17.6729 37.6584 0 1 
4568 18.9648 36.1572 0 1 
4569 19.3359 37.0388 0 1 
4618 19.9451 36.0937 0 1 
4619 20.3474 37.0036 0 1 
3322 0.554889 37.4951 0 1 
3323 1.21641 38.2298 0 1 
3382 1.51383 37.2553 0 1 
3263 0.0953257 38.3595 0 1 
3383 2.23183 37.9461 0 1 
3443 2.53366 36.9649 0 1 
3444 3.18583 37.7129 0 1 
3505 3.58015 36.7508 0 1 
3506 4.21024 37.499 0 2 
3566 5.23661 37.2324 0 2 
3626 6.23924 37.0551 0 2 
3627 5.88408 37.9953 0 2 
3689 6.89143 37.8207 0 1 
3688 7.23471 36.8768 0 1 
3748 8.16225 36.7153 0 1 
3749 7.91963 37.6548 0 1 
3803 9.06929 37.5482 0 1 
3804 9.6118 38.3913 0 1 
3852 10.3683 37.8052 0 1 
4180 10.6588 38.7124 0 1 
4223 11.3643 38.0253 0 1 
4224 11.6517 38.9643 0 1 
4272 12.3611 38.2371 0 1 
4273 12.6114 39.2422 0 1 
4322 13.3164 38.455 0 1 
4321 14.0158 37.7347 0 1 
4371 14.9728 37.9959 0 2 
4372 14.2835 38.6994 0 1 
4422 15.2286 38.9321 0 2 
4421 15.9296 38.1984 0 2 
4471 16.9229 38.3751 0 1 
4472 16.2237 39.1919 0 2 
4521 17.9125 38.5777 0 1 
4570 18.725 37.8135 0 1 
4571 18.8686 38.739 0 1 
4620 19.8325 37.8657 0 1 
4621 19.8364 38.8318 0 1 
3324 0.91674 39.1603 0 1 
3325 1.58497 39.879 0 1 
3384 1.95946 38.9267 0 1 
3385 2.60799 39.67 0 1 
3445 2.92224 38.7169 0 1 
3446 3.58572 39.4425 0 1 
3507 3.87752 38.4449 0 1 
3508 4.55073 39.1645 0 2 
3567 4.89223 38.2186 0 2 
3568 5.5446 38.958 0 2 
3628 6.53257 38.7456 0 1 
3629 6.23638 39.7092 0 2 
3690 7.53565 38.5648 0 1 
3691 7.18848 39.5151 0 1 
3750 8.53612 38.3903 0 1 
3751 8.14594 39.3445 0 1 
3805 9.09692 39.2068 0 1 
3853 10.0162 39.491 0 1 
4225 10.9867 39.666 0 1 
4226 11.2228 40.6663 0 1 
4274 11.9363 39.9423 0 1 
4323 13.6068 39.4213 0 1 
4324 12.9385 40.1693 0 1 
4373 14.5718 39.6634 0 2 
4374 13.9052 40.3851 0 1 
4424 14.88 40.6353 0 2 
4423 15.5393 39.9018 0 2 
4473 16.5041 40.1514 0 1 
4474 15.8466 40.8882 0 2 
4522 17.2121 39.3406 0 1 
4523 17.4897 40.2785 0 1 
4572 18.2541 39.4994 0 1 
4573 18.4455 40.4724 0 1 
4622 19.3037 39.6497 0 1 
4623 19.3716 40.6348 0 1 
4672 20.6292 39.382 0 1 
3264 0.587924 40.1108 0 1 
3265 0.209977 41.0647 0 1 
3326 1.26408 40.8714 0 1 
3386 2.2665 40.6299 0 1 
3387 2.96354 41.3671 0 1 
3447 3.3224 40.4055 0 1 
3448 3.97525 41.1303 0 1 
3509 4.26146 40.1437 0 2 
3510 4.93159 40.9084 0 2 
3569 5.24052 39.9209 0 2 
3570 5.89912 40.661 0 2 
3630 6.85104 40.476 0 1 
3692 7.89205 40.2869 0 1 
3693 7.46762 41.219 0 1 
3753 8.47228 41.0312 0 1 
3752 8.99259 40.1341 0 1 
3806 10.2982 40.4033 0 1 
3807 9.51537 40.9786 0 1 
4227 10.515 41.36 0 1 
4276 11.5307 41.6048 0 1 
4275 12.2114 40.8751 0 1 
4325 13.2009 41.1277 0 1 
4326 12.5232 41.809 0 1 
4376 13.5165 42.0706 0 1 
4375 14.2129 41.3563 0 1 
4425 15.1688 41.5916 0 2 
4426 14.4837 42.3187 0 2 
4475 16.1786 41.8093 0 2 
4524 16.8665 41.075 0 1 
4525 17.1464 42.0178 0 1 
4574 17.809 41.273 0 1 
4575 18.2031 42.1811 0 1 
4624 18.8315 41.4499 0 1 
4625 19.3083 42.2984 0 1 
4673 20.2336 40.2656 0 1 
4674 19.8615 41.4378 0 1 
3266 0.964226 41.785 0 1 
3267 0.630178 42.7546 0 1 
3328 1.62838 42.5433 0 1 
3327 1.97602 41.5991 0 1 
3388 2.62487 42.3235 0 1 
3389 3.27023 43.0544 0 1 
3449 3.60883 42.0976 0 1 
3450 4.25612 42.8522 0 2 
3511 4.5905 41.9127 0 2 
3512 5.24286 42.6365 0 2 
3571 5.54329 41.6838 0 2 
3572 6.21296 42.4166 0 1 
3631 6.53071 41.4338 0 1 
3632 7.18539 42.2251 0 1 
3694 8.13246 41.9652 0 1 
3695 7.95199 42.9193 0 1 
3754 9.04457 41.7974 0 1 
3755 9.04393 42.754 0 1 
3808 9.91165 42.1502 0 1 
3809 10.2456 43.0854 0 1 
4228 10.94 42.3364 0 1 
4277 11.9215 42.5752 0 1 
4278 11.2102 43.308 0 1 
4327 12.8597 42.8137 0 1 
4328 12.1531 43.5368 0 1 
4378 13.1199 43.7637 0 1 
4377 13.85 43.0526 0 1 
4427 14.832 43.2911 0 2 
4428 14.1383 44.0087 0 1 
4476 15.4831 42.5481 0 2 
4477 15.8365 43.5127 0 2 
4526 16.4642 42.7831 0 2 
4527 16.8198 43.6937 0 1 
4576 17.4494 42.9513 0 1 
4577 17.7974 43.9253 0 1 
4626 18.4057 43.1171 0 1 
4675 20.6478 42.0116 0 1 
4676 19.3743 43.2372 0 1 
4727 20.3058 42.9165 0 1 
3207 0.259564 43.7146 0 1 
3268 1.29468 43.4896 0 1 
3269 0.999378 44.4594 0 1 
3329 2.30353 43.2703 0 1 
3330 1.98443 44.2245 0 1 
3390 2.95713 44.0145 0 1 
3451 3.95613 43.805 0 1 
3452 4.63879 44.5311 0 2 
3513 4.93864 43.5899 0 2 
3514 5.67935 44.3058 0 2 
3573 5.94966 43.3507 0 2 
3574 6.6822 44.1151 0 1 
3633 6.9045 43.1648 0 1 
3634 7.60916 43.8538 0 1 
3697 8.50677 44.6736 0 1 
3696 8.54347 43.6657 0 1 
3756 9.51527 43.7267 0 1 
3757 9.66344 44.6906 0 1 
4229 10.4564 44.0826 0 1 
4279 11.4834 44.2612 0 1 
4280 10.7791 45.017 0 1 
4330 11.8415 45.2692 0 1 
4329 12.4542 44.5096 0 1 
4379 13.4243 44.7302 0 1 
4380 12.8002 45.4894 0 1 
4429 14.4713 44.9852 0 1 
4478 15.1793 44.2881 0 2 
4479 15.4823 45.2162 0 2 
4528 16.1377 44.4474 0 2 
4529 16.4506 45.4119 0 2 
4578 17.1123 44.679 0 1 
4579 17.4611 45.6345 0 1 
4627 18.8442 44.0762 0 1 
4628 18.157 44.8405 0 1 
4677 19.8952 44.0672 0 1 
4678 19.3753 44.9204 0 1 
4728 -0.0102227 44.6482 0 1 
3208 0.629292 45.4102 0 1 
3270 1.6926 45.1879 0 1 
3271 1.30067 46.1478 0 1 
3209 0.304224 46.3892 0 1 
3331 2.66844 45.0129 0 1 
3332 2.35722 45.9432 0 1 
3392 3.33428 45.7346 0 1 
3391 3.61622 44.7377 0 1 
3453 4.34968 45.4411 0 2 
3454 5.05976 46.1729 0 2 
3515 5.38941 45.2408 0 2 
3516 6.04401 46.0214 0 2 
3575 6.35368 45.0466 0 1 
3576 7.03928 45.8118 0 1 
3635 7.39264 44.8283 0 1 
3636 8.01956 45.5861 0 1 
3698 9.05856 45.5131 0 1 
3758 10.0577 45.6688 0 1 
3759 9.54147 46.5262 0 1 
4281 11.1728 45.9751 0 1 
4282 10.4659 46.6844 0 1 
4332 11.5085 46.9333 0 1 
4331 12.1861 46.278 0 1 
4381 13.1583 46.5438 0 1 
4382 12.4756 47.26 0 1 
4430 13.8116 45.7225 0 1 
4431 14.1533 46.7673 0 1 
4480 14.8223 45.9611 0 2 
4481 15.1701 46.9548 0 2 
4530 15.8016 46.1821 0 2 
4531 16.1707 47.1684 0 2 
4580 16.7874 46.3798 0 1 
4629 18.4722 45.7726 0 1 
4630 17.8381 46.5349 0 1 
4680 18.8961 46.758 0 1 
4679 19.3881 45.8996 0 1 
4729 20.3271 45.6079 0 1 
4730 19.9493 46.6721 0 1 
3210 0.951563 47.1305 0 1 
3273 1.65612 47.855 0 1 
3272 1.95502 46.9071 0 1 
3333 3.07414 46.664 0 1 
3334 2.70579 47.5868 0 1 
3393 4.05539 46.4147 0 1 
3394 3.77172 47.3602 0 1 
3455 4.7588 47.1795 0 2 
3517 5.75382 46.9643 0 2 
3518 6.45283 47.6894 0 1 
3577 6.71926 46.7466 0 1 
3578 7.47154 47.5017 0 1 
3637 7.66482 46.5337 0 1 
3638 8.58261 47.3905 0 1 
3699 8.59619 46.4121 0 1 
3700 9.78806 47.4668 0 1 
3760 10.098 48.4161 0 1 
4283 10.8266 47.7056 0 1 
4333 11.7795 47.9965 0 1 
4334 11.127 48.6694 0 1 
4383 12.8056 48.2213 0 1 
4432 13.5049 47.5069 0 1 
4433 13.8021 48.4577 0 1 
4482 14.4681 47.6943 0 1 
4483 14.7756 48.6914 0 2 
4532 15.4754 47.9129 0 2 
4581 17.2021 47.3422 0 1 
4533 15.7705 48.8395 0 2 
4582 16.4813 48.1194 0 2 
4631 18.2104 47.5331 0 1 
4632 17.4377 48.3745 0 1 
4682 18.356 48.5341 0 1 
4681 19.5312 47.5874 0 1 
4731 20.6414 47.3712 0 1 
4732 19.3087 48.5507 0 1 
4783 20.2369 48.3153 0 1 
3153 0.271075 49.0021 0 1 
3211 0.653537 48.0925 0 1 
3212 1.32566 48.821 0 1 
3274 2.38239 48.557 0 1 
3335 3.42471 48.3084 0 1 
3336 3.04305 49.2734 0 1 
3395 4.43358 48.1072 0 2 
3396 4.09107 49.0583 0 1 
3457 5.1032 48.8476 0 2 
3456 5.4519 47.9238 0 2 
3519 6.15916 48.6988 0 2 
3520 6.84971 49.4096 0 1 
3579 7.1381 48.4477 0 1 
3580 7.89203 49.2113 0 1 
3639 8.12546 48.3002 0 1 
3640 9.22673 49.1794 0 1 
3701 9.12191 48.2019 0 1 
3702 10.337 49.3676 0 1 
4384 12.1424 48.9493 0 1 
4335 11.408 49.6298 0 1 
4385 12.432 49.9316 0 1 
4434 13.1458 49.1773 0 1 
4435 13.4348 50.1428 0 1 
4484 14.1123 49.4516 0 1 
4485 14.4467 50.3836 0 1 
4534 15.1265 49.6317 0 2 
4535 15.4255 50.5914 0 2 
4583 16.7336 49.085 0 1 
4584 16.1098 49.8775 0 2 
4634 17.1317 50.0602 0 1 
4633 17.7835 49.333 0 1 
4683 18.8325 49.444 0 1 
4684 18.1565 50.2248 0 1 
4733 19.9085 49.3063 0 1 
4734 19.4633 50.2403 0 1 
3154 0.683833 50.6433 0 1 
3213 0.999623 49.7334 0 1 
3214 1.7072 50.4682 0 1 
3275 2.04029 49.5241 0 1 
3276 2.70823 50.2374 0 1 
3338 3.40579 50.9264 0 1 
3337 3.75891 49.9799 0 1 
3397 4.80412 49.7724 0 2 
3398 4.44429 50.7023 0 2 
3458 5.83424 49.6381 0 2 
3459 5.44548 50.5505 0 2 
3521 6.49669 50.3636 0 1 
3581 7.51534 50.1309 0 1 
3582 8.10568 50.8971 0 1 
3641 8.57875 49.9833 0 1 
3522 7.17925 51.1378 0 1 
3642 9.05276 50.8968 0 1 
3703 9.70151 50.1094 0 1 
3704 9.99073 51.0992 0 1 
4336 10.6613 50.3372 0 1 
4337 11.0199 51.3155 0 1 
4386 11.6967 50.6065 0 1 
4387 12.0313 51.6114 0 1 
4436 12.7534 50.9169 0 1 
4437 13.0674 51.8557 0 1 
4486 13.7229 51.1028 0 1 
4487 14.0813 52.0698 0 1 
4536 14.7238 51.3546 0 2 
4585 16.4435 50.8261 0 2 
4586 15.7396 51.5809 0 2 
4636 16.7633 51.8175 0 1 
4635 17.4435 51.0183 0 1 
4685 18.3837 51.2074 0 1 
4686 17.7772 51.9933 0 1 
4736 18.7871 52.0692 0 1 
4735 19.3452 51.2433 0 1 
4784 20.6073 49.9606 0 1 
4785 20.2856 50.9421 0 1 
3155 0.357783 51.6282 0 1 
3156 1.09703 52.3491 0 1 
3215 1.38801 51.3909 0 1 
3216 2.0888 52.1192 0 1 
3277 2.40892 51.1792 0 1 
3278 3.12457 51.9111 0 1 