ITEM: TIMESTEP
0
ITEM: NUMBER OF ATOMS
100
ITEM: BOX BOUNDS pp pp pp
0	1.00000000
0	1.00000000
0	1.00000000
ITEM: ATOMS id x y z 
1	0.24257830	0.01346957	0.50000000	
2	0.38313885	0.41465269	0.50000000	
3	0.06776897	0.99312693	0.50000000	
4	0.48430805	0.76533777	0.50000000	
5	0.03183382	0.03093548	0.50000000	
6	0.93264044	0.88787953	0.50000000	
7	0.59132973	0.47877868	0.50000000	
8	0.83335434	0.18633520	0.50000000	
9	0.73565271	0.11505317	0.50000000	
10	0.69865863	0.35560411	0.50000000	
11	0.63830001	0.90821051	0.50000000	
12	0.29400041	0.26497159	0.50000000	
13	0.37749400	0.54162012	0.50000000	
14	0.00928182	0.99946528	0.50000000	
15	0.01290192	0.84249732	0.50000000	
16	0.85247022	0.46701098	0.50000000	
17	0.05360723	0.97674759	0.50000000	
18	0.19675474	0.85697294	0.50000000	
19	0.14421376	0.80066219	0.50000000	
20	0.72939762	0.98579065	0.50000000	
21	0.18340571	0.49976021	0.50000000	
22	0.46986202	0.97099130	0.50000000	
23	0.45077026	0.09579188	0.50000000	
24	0.97408165	0.39023506	0.50000000	
25	0.68067036	0.02666932	0.50000000	
26	0.23124107	0.46873909	0.50000000	
27	0.09796010	0.41541003	0.50000000	
28	0.79629419	0.31640260	0.50000000	
29	0.77853445	0.82849331	0.50000000	
30	0.48714042	0.36904878	0.50000000	
31	0.60284550	0.02426436	0.50000000	
32	0.81111179	0.35579259	0.50000000	
33	0.80610905	0.27487712	0.50000000	
34	0.85981740	0.95101906	0.50000000	
35	0.77727618	0.68083746	0.50000000	
36	0.83518541	0.96112961	0.50000000	
37	0.70542475	0.07375123	0.50000000	
38	0.53685709	0.95718558	0.50000000	
39	0.41806502	0.41877680	0.50000000	
40	0.38161700	0.83692747	0.50000000	
41	0.24006225	0.72621120	0.50000000	
42	0.43161282	0.11669090	0.50000000	
43	0.22391323	0.30958796	0.50000000	
44	0.24480139	0.37703383	0.50000000	
45	0.80753940	0.31473643	0.50000000	
46	0.77522957	0.28333411	0.50000000	
47	0.99634872	0.63286731	0.50000000	
48	0.60091090	0.50948022	0.50000000	
49	0.83412860	0.19944285	0.50000000	
50	0.03598084	0.73000523	0.50000000	
51	0.19791118	0.29319750	0.50000000	
52	0.77034657	0.21475036	0.50000000	
53	0.30922001	0.06066268	0.50000000	
54	0.55759011	0.41691652	0.50000000	
55	0.11594488	0.68554531	0.50000000	
56	0.95995080	0.89308836	0.50000000	
57	0.13613362	0.99780020	0.50000000	
58	0.02797335	0.14806467	0.50000000	
59	0.52297503	0.64133927	0.50000000	
60	0.98914608	0.57813295	0.50000000	
61	0.68053043	0.67497840	0.50000000	
62	0.36204645	0.91470996	0.50000000	
63	0.53036935	0.91761070	0.50000000	
64	0.28310876	0.20898862	0.50000000	
65	0.47181571	0.80657831	0.50000000	
66	0.16168943	0.51429839	0.50000000	
67	0.81311740	0.06416848	0.50000000	
68	0.47962416	0.04330951	0.50000000	
69	0.90291512	0.29450144	0.50000000	
70	0.68573011	0.06603327	0.50000000	
71	0.82121989	0.24277445	0.50000000	
72	0.31025719	0.49255407	0.50000000	
73	0.35617945	0.30799054	0.50000000	
74	0.39698167	0.07091608	0.50000000	
75	0.88651657	0.68403214	0.50000000	
76	0.52822650	0.90281945	0.50000000	
77	0.68650344	0.06331601	0.50000000	
78	0.15214040	0.02376503	0.50000000	
79	0.41894299	0.17479340	0.50000000	
80	0.75275125	0.49031640	0.50000000	
81	0.74774375	0.32927456	0.50000000	
82	0.11757709	0.11812786	0.50000000	
83	0.37498524	0.37696964	0.50000000	
84	0.72874484	0.01448099	0.50000000	
85	0.38201288	0.49049965	0.50000000	
86	0.82757659	0.07966466	0.50000000	
87	0.92396728	0.11804238	0.50000000	
88	0.93825168	0.19597347	0.50000000	
89	0.72611756	0.85786301	0.50000000	
90	0.10363771	0.83891028	0.50000000	
91	0.56511039	0.81040084	0.50000000	
92	0.40696942	0.93497714	0.50000000	
93	0.16087440	0.81605472	0.50000000	
94	0.43173964	0.24810082	0.50000000	
95	0.83052277	0.59621859	0.50000000	
96	0.64577903	0.60816895	0.50000000	
97	0.49546644	0.30438244	0.50000000	
98	0.75562733	0.82861043	0.50000000	
99	0.45555055	0.43814467	0.50000000	
100	0.89743077	0.11894443	0.50000000	
