ITEM: TIMESTEP
300000
ITEM: NUMBER OF ATOMS
18225
ITEM: BOX BOUNDS pp pp pp
-7.2179575591123308e+00 1.6721795755910739e+02
-7.2179575591123308e+00 1.6721795755910739e+02
-5.0000000000000000e-01 5.0000000000000000e-01
ITEM: ATOMS id x y z
4208 -5.45889 -6.41348 0
7230 12.5923 78.917 0
15059 -4.62254 -7.03995 0
1077 24.3488 -6.64182 0
14413 -6.76523 30.7942 0
752 -2.12672 -6.21335 0
18147 1.46108 -4.69023 0
14816 5.21091 -5.59381 0
161 3.8003 -5.82508 0
6330 -6.99297 17.9833 0
5135 6.17644 -5.07734 0
938 5.0284 -3.91996 0
17717 7.16674 -5.10423 0
556 35.5593 -7.22068 0
14835 -5.07064 19.2818 0
17827 12.4719 -4.20459 0
13334 11.5257 -6.64621 0
1614 -7.16726 54.8963 0
16528 -7.18591 68.7209 0
4242 35.5651 60.5656 0
17771 15.8043 -6.08447 0
1309 19.7865 -6.25316 0
1063 36.27 28.9574 0
15816 35.4259 0.312949 0
4297 23.1028 -7.06676 0
4674 26.4463 -4.72304 0
381 26.7372 -2.41703 0
4356 27.2571 -5.43242 0
631 28.5062 -6.34265 0
6738 29.6605 78.1263 0
1062 7.73984 -6.08209 0
4462 -4.79475 -3.25413 0
7319 32.9612 -6.47204 0
17471 34.5047 -2.84465 0
5239 35.444 -5.41614 0
602 35.5487 -4.30226 0
2048 35.0338 15.9578 0
958 -6.64924 -5.79504 0
3983 -4.62237 -5.89117 0
1608 -2.54487 -4.62271 0
3402 27.3811 -7.01547 0
267 0.230936 -4.85446 0
4137 1.20078 -3.56595 0
17845 1.65828 -2.33426 0
751 2.21567 -5.68406 0
4572 3.97981 -4.70472 0
13529 6.06043 -3.9476 0
1832 8.60578 -5.292 0
17630 6.56296 -6.58869 0
13993 8.41776 -4.11014 0
14192 10.2901 -4.13221 0
17459 11.4211 -4.68228 0
829 13.3174 -5.15224 0
156 12.1981 -5.37916 0
3800 14.2998 -4.76675 0
17731 15.8556 -4.82908 0
1840 18.6093 -6.26355 0
17894 17.5955 -5.19597 0
4475 21.8759 -5.24286 0
2066 21.9887 -6.39448 0
4049 25.474 -4.12411 0
853 28.1638 -4.99755 0
4563 29.1323 -5.4432 0
1395 30.9625 -6.52584 0
14824 29.5833 -6.93055 0
1118 33.0495 -3.48843 0
5698 34.2674 -5.41406 0
672 -6.79687 21.4643 0
6354 -5.51625 -4.02584 0
3236 -5.95039 -5.06832 0
14723 -3.75745 -5.23413 0
4232 -1.10563 -4.25955 0
4497 -3.26074 -6.33023 0
830 0.653843 -2.40004 0
1203 2.22783 -3.71966 0
6262 3.51017 -3.57462 0
1277 5.59866 -2.84584 0
3993 6.63548 -2.62081 0
14652 7.42127 -3.60944 0
4544 9.82576 -3.08207 0
3469 10.5537 -1.08804 0
258 10.9255 -2.76973 0
17819 14.9463 -6.92 0
1071 12.3777 -2.8091 0
14417 14.0566 -6.00552 0
15145 13.5496 -4.04446 0
1619 15.0552 -3.88596 0
17855 16.9082 -6.11862 0
17004 16.9439 -4.36816 0
4206 18.1927 -4.15774 0
18140 21.8742 -3.81472 0
6064 22.7301 -1.09303 0
17658 22.9916 -5.06225 0
15188 24.4564 -2.70198 0
485 29.115 -4.36038 0
7067 27.5693 -3.98613 0
1094 30.419 -5.5065 0
716 31.5058 -4.03986 0
1278 33.3157 -5.28747 0
407 31.8103 -2.60794 0
868 29.8676 -2.51137 0
6240 31.8163 -1.50937 0
15485 35.4325 -1.62419 0
4151 4.02365 79.5614 0
1551 33.4066 -1.26906 0
15203 -4.65425 -4.72314 0
14865 -3.64745 -2.54888 0
14876 -3.66488 -4.02441 0
15155 -1.14665 -2.71878 0
1331 -2.1219 -3.1641 0
3961 -0.828183 -5.7161 0
17424 0.0774996 -3.71895 0
12 0.803554 -0.185044 0
17920 4.59481 -3.01059 0
4284 4.19038 -1.64236 0
1069 5.34719 -0.708333 0
35 7.41596 0.598544 0
15549 5.89528 -1.81352 0
529 11.6029 -3.63485 0
17634 8.61636 -1.20064 0
17601 13.7773 -1.9705 0
3828 16.0234 -2.51483 0
4742 16.1892 -3.62946 0
1324 17.4262 -2.61733 0
10239 18.6226 -2.92925 0
98 18.6372 -1.8632 0
274 18.9817 -5.26672 0
15242 20.702 -4.80215 0
17324 23.9636 -0.687947 0
4578 20.0415 0.918443 0
16068 21.1365 0.353739 0
1128 25.4098 -2.07079 0
4502 27.6884 -2.07341 0
64 28.9022 -3.21134 0
2275 28.6469 -0.0413671 0
4029 28.6389 -1.76803 0
15323 33.4165 -2.33299 0
15508 29.8434 0.215844 0
5734 30.7312 -1.56383 0
6114 34.3827 -1.75349 0
2245 -6.61924 59.9185 0
1396 12.9446 -6.29855 0
15098 -2.98924 -0.445759 0
14857 -4.67058 -0.440396 0
14381 -4.03657 -1.25087 0
14026 -3.66347 0.419985 0
4500 -2.57046 -1.97876 0
11518 -1.6142 1.08471 0
1376 -1.08318 -1.64849 0
13920 -0.36953 -0.879566 0
6125 -1.45035 -0.098212 0
189 1.22719 -1.17636 0
637 2.77518 -1.83752 0
15068 4.29194 -0.116556 0
4484 8.11278 1.59918 0
1523 8.71261 -2.73349 0
13614 7.51332 -2.22425 0
17353 6.84046 -0.527877 0
554 7.9105 -0.519001 0
7145 11.366 -1.81831 0
3510 13.8048 -0.740724 0
1282 12.8199 -1.0817 0
4628 14.1885 -3.31075 0
6190 15.0902 0.974474 0
17950 14.9859 -2.20337 0
5985 15.6253 -1.17275 0
6054 21.5491 -1.94362 0
691 19.6115 -4.2579 0
4155 21.2566 -0.793401 0
8198 19.7333 -1.34311 0
4188 22.9125 0.0404214 0
657 25.8811 -1.05609 0
526 26.5848 -0.175767 0
2272 29.7092 -1.472 0
482 28.9683 2.85114 0
14127 29.8707 -3.63943 0
1604 30.8518 0.370803 0
5202 33.3329 0.287201 0
6180 34.5766 1.46781 0
15288 8.80935 -6.62152 0
7860 18.6363 79.6745 0
2787 8.68709 79.7942 0
18136 -6.85477 19.8281 0
18097 -5.2753 0.461438 0
411 1.02549 0.987659 0
821 -2.68402 0.568622 0
15111 2.54745 3.28916 0
17922 -0.084593 0.595152 0
682 2.20385 -0.459958 0
3473 7.09083 1.65677 0
593 10.1248 0.872706 0
15500 8.84567 0.811407 0
15390 11.4775 3.12058 0
1982 11.7553 0.164291 0
850 12.2664 2.33599 0
4538 11.9977 1.29912 0
4274 14.0462 0.410118 0
17583 14.7516 -0.328176 0
4384 18.0274 -0.615844 0
15414 15.8761 -0.0460821 0
17526 18.2779 0.909113 0
8540 16.5948 -0.788901 0
5251 19.9225 -2.73248 0
7023 21.2733 1.46691 0
15444 20.1567 -0.335373 0
17829 23.6548 0.976592 0
5035 22.4064 1.49787 0
3240 24.6917 0.687334 0
18027 25.7616 0.841083 0
1035 26.616 2.93373 0
5499 27.1331 0.668547 0
15349 27.5512 3.51338 0
10236 28.3709 1.24886 0
6635 29.282 1.75502 0
767 32.546 1.55506 0
1196 -6.71335 42.2475 0
4368 -5.16219 2.27405 0
9917 -4.30695 1.26048 0
1076 -2.05224 -0.931354 0
14571 -1.45006 2.12025 0
887 1.69241 3.78348 0
1131 0.702958 2.96057 0
13827 2.57761 0.857479 0
1108 3.26571 2.08542 0
231 3.2822 -0.320017 0
17778 6.1382 0.218776 0
6631 10.7279 -0.0382732 0
410 9.55938 -0.11112 0
14856 12.7019 0.551718 0
13821 12.2915 3.89012 0
13797 10.6995 4.02594 0
4313 16.0375 1.67053 0
401 14.991 3.08176 0
17409 17.0721 0.454573 0
1138 16.9769 2.11521 0
2276 18.3386 2.14925 0
264 19.0138 0.217195 0
8773 19.4693 2.34877 0
626 21.8578 2.46343 0
1645 23.7174 1.96567 0
579 28.7546 4.08398 0
13862 27.7954 2.50627 0
718 31.8662 -0.29496 0
11391 34.3763 3.13259 0
286 33.222 3.05483 0
4660 -5.20587 4.41064 0
14039 -4.34066 3.26389 0
14792 -5.4349 3.33187 0
378 -6.20573 9.18634 0
4565 -3.08976 3.52055 0
645 1.49743 6.11016 0
1797 2.14239 7.16779 0
675 1.50766 5.08494 0
1814 -0.0781071 2.04614 0
635 2.78218 6.32734 0
960 3.62382 0.878055 0
1687 6.31223 2.60301 0
550 5.37702 1.39233 0
2902 7.21635 5.62592 0
973 10.9123 2.02011 0
1647 7.85478 3.49397 0
1058 9.36585 4.73554 0
1882 12.6995 6.57698 0
1220 14.2025 1.98806 0
18026 13.2373 2.8281 0
1370 16.7231 3.91031 0
16970 16.0603 2.90039 0
1627 19.1211 4.234 0
374 19.9504 3.35945 0
738 20.6398 2.46296 0
5389 21.0051 3.36021 0
4556 22.498 3.59808 0
255 23.4573 3.11763 0
140 25.145 1.85273 0
1031 26.3885 1.85891 0
15417 30.9369 4.80892 0
722 26.6661 4.02365 0
936 26.9317 5.08084 0
1223 29.4908 4.8104 0
14317 30.3972 1.91291 0
17592 30.0644 3.60521 0
14952 30.9118 2.98142 0
7213 32.9891 4.15027 0
383 31.5066 1.89202 0
5374 35.4573 6.87613 0
10533 -5.21216 55.5289 0
7495 36.2751 78.2879 0
17565 -6.87822 78.8546 0
14130 34.1985 21.289 0
15436 -4.09114 4.77854 0
6602 -4.73883 5.81402 0
1776 -3.08761 5.18772 0
15728 -3.42799 2.23365 0
15042 -2.47114 2.42573 0
10370 -1.64455 3.18964 0
1829 3.84884 6.99766 0
17525 -0.383636 3.01205 0
14939 1.07045 7.16851 0
289 4.96087 5.38469 0
13899 5.1025 3.46864 0
2524 4.48762 1.99345 0
1818 3.70908 5.16632 0
243 6.8848 3.9221 0
193 10.2567 7.98372 0
4898 10.8481 6.2039 0
1996 11.2797 7.1947 0
922 13.4214 4.03457 0
558 15.0822 6.35021 0
6438 14.3464 5.44525 0
1598 18.645 3.23064 0
6362 17.8305 4.34939 0
14210 18.8108 5.34829 0
2803 20.5452 4.41727 0
14219 21.6935 4.31853 0
15706 19.8621 5.2186 0
14124 25.414 4.12898 0
1707 25.4833 2.86933 0
6375 25.8952 6.42478 0
388 25.8858 5.32102 0
612 27.3024 6.14409 0
4366 32.0909 3.45853 0
928 31.9566 5.72544 0
13900 33.374 6.33401 0
6433 35.4537 7.90382 0
301 17.6001 -7.2467 0
1625 -5.75664 5.8322 0
2166 -6.4713 7.32822 0
15084 -2.18659 4.29225 0
2381 -1.88114 5.26548 0
6020 -0.395745 6.87884 0
5240 2.44462 8.07864 0
1543 3.43647 8.24566 0
15204 4.57524 8.20493 0
17823 3.32663 9.75405 0
14063 6.47987 4.92416 0
13836 8.68842 2.73495 0
2191 8.51281 5.94942 0
781 9.93669 5.68105 0
342 10.4549 9.12107 0
1702 13.9736 6.54144 0
17206 13.2005 5.6261 0
770 15.4499 5.01723 0
2153 14.3581 8.0397 0
413 16.1966 6.14347 0
14873 19.6448 6.2207 0
15114 17.08 5.7588 0
5343 21.0007 5.41187 0
4461 23.5684 5.20304 0
14980 20.7143 6.50037 0
1284 24.3202 4.29219 0
288 24.1676 6.7167 0
17318 24.9621 5.79292 0
1183 26.6586 7.11648 0
998 28.3965 8.14472 0
5382 32.0079 4.64793 0
4562 28.0538 5.20478 0
13798 31.088 6.41238 0
457 30.5923 7.43152 0
488 35.4676 9.45488 0
5084 34.2379 7.13163 0
8335 24.8644 79.0423 0
2764 -6.15216 68.1046 0
1597 25.4404 -6.16306 0
14426 -3.56853 6.26302 0
15743 -4.40658 7.78523 0
15733 -2.479 6.1678 0
15283 -0.751328 5.33534 0
1867 -0.869041 4.30408 0
14459 4.733 6.5368 0
14958 6.05867 6.00583 0
1353 6.98355 8.15113 0
13952 6.59252 7.02761 0
4427 7.66288 7.04309 0
1648 10.9074 10.1466 0
1507 8.95977 6.83391 0
1222 11.2979 8.31021 0
265 13.0963 8.87992 0
1432 12.4358 7.56758 0
4570 16.656 7.90395 0
3986 15.6881 7.78495 0
17623 19.204 8.41295 0
15238 20.8808 7.62567 0
88 20.9195 10.6487 0
1140 18.184 7.32303 0
13934 25.3931 7.38755 0
1540 28.5411 9.46633 0
13828 29.7892 8.99247 0
1993 29.4137 7.73515 0
1172 32.1924 7.12104 0
3996 33.2939 7.61029 0
14093 34.3706 9.1622 0
2098 34.942 10.5534 0
1110 -4.81129 6.7886 0
6650 36.1247 44.1622 0
14274 -3.64247 8.4386 0
15094 -2.9088 7.70951 0
14257 -1.69011 6.8226 0
1971 -0.347371 8.13729 0
823 1.42676 8.25343 0
114 0.626183 4.33158 0
18075 0.394496 5.61903 0
860 2.29922 9.94279 0
18123 1.40085 9.49683 0
1698 2.50105 11.1012 0
15345 4.48259 11.1917 0
940 5.41911 7.35204 0
919 6.86064 9.2847 0
6467 5.64532 8.60965 0
2053 9.47344 9.83044 0
5917 8.97928 11.116 0
1421 12.2672 10.0824 0
1457 13.0947 10.9488 0
484 13.3854 9.94338 0
1775 17.1085 6.86217 0
15186 17.6247 10.6903 0
1320 17.767 8.5457 0
5208 19.2158 7.374 0
14462 16.5325 11.3747 0
864 19.7433 10.5208 0
5308 22.1293 7.23111 0
2039 23.1404 7.06209 0
621 20.9616 8.67727 0
7016 24.1639 7.82933 0
3477 24.8915 8.59856 0
17846 25.9181 8.84822 0
1964 27.4765 8.07971 0
580 28.6563 10.7341 0
6398 28.5564 6.98232 0
7050 30.998 8.50907 0
32 32.071 9.69085 0
5376 32.4642 8.46427 0
14049 -5.75969 21.9035 0
2641 15.9855 78.0459 0
17722 10.2818 -5.25682 0
1661 -4.24404 10.1832 0
317 -4.50676 8.89386 0
13935 -5.56113 7.89201 0
14694 -2.33171 8.7976 0
14838 0.422414 9.2347 0
14225 0.367836 10.6481 0
851 2.83172 12.3514 0
14913 3.42528 11.3834 0
4559 5.78881 9.72883 0
2150 6.87662 10.2821 0
15259 8.15455 10.3153 0
15121 7.94177 12.89 0
14787 8.24069 9.1995 0
6395 10.324 11.7648 0
2137 10.4928 12.8693 0
7078 11.4542 11.4525 0
1298 12.503 12.0817 0
859 14.1286 10.9155 0
1323 16.2599 14.1081 0
15054 16.4618 10.2796 0
5443 16.7845 13.1972 0
4798 20.3206 9.68782 0
14292 23.977 8.99944 0
6735 23.1409 8.24323 0
1869 24.7089 10.5197 0
1529 26.8564 10.7045 0
1238 25.8414 10.0647 0
4393 27.294 9.8141 0
85 28.336 11.8931 0
5582 29.7281 10.1698 0
1301 30.8251 9.5207 0
2249 31.6346 14.0309 0
6329 30.6258 11.2479 0
6750 33.2311 9.28107 0
17291 1.06866 -6.71476 0
6533 33.6609 10.8211 0
14385 -6.71788 10.873 0
768 -6.95364 9.78005 0
15596 -4.44941 11.248 0
14409 -2.34085 9.88581 0
11412 -0.81857 9.46907 0
15604 1.45499 10.6572 0
861 -1.9449 11.943 0
5739 -0.128457 13.0053 0
1039 -0.706486 11.5898 0
1868 2.07137 13.1393 0
14473 1.65224 11.6807 0
5926 4.28819 12.2032 0
1207 6.8907 11.4642 0
4812 9.1309 12.2383 0
1398 11.498 13.8412 0
6785 11.51 12.6623 0
1886 14.8558 12.1076 0
6265 14.1991 13.6026 0
653 15.3394 10.6093 0
1394 18.5992 9.61283 0
394 18.9451 12.817 0
6130 19.7547 11.8209 0
14489 22.9136 9.25179 0
1129 23.7858 11.7075 0
857 25.6591 11.362 0
5408 29.3045 12.4299 0
4579 30.6827 14.7137 0
5279 29.5755 11.4811 0
1067 32.5147 11.2349 0
350 34.5926 11.7792 0
14428 -6.37254 14.5729 0
15341 -5.24972 10.5946 0
14047 -3.83865 13.2556 0
15263 -3.12818 12.0215 0
13826 -2.74311 13.2165 0
715 -1.27593 10.4522 0
966 -1.08954 14.1906 0
706 2.81971 13.9947 0
15122 5.88867 12.0064 0
1332 5.82535 10.9113 0
14254 4.97488 13.3947 0
1734 7.30218 14.3396 0
17445 6.9747 13.375 0
5767 8.82054 14.473 0
1999 12.4447 13.2912 0
422 10.4932 14.9889 0
1793 12.7267 14.3296 0
2131 15.8014 16.4273 0
978 13.7833 12.4926 0
1714 15.4403 9.35785 0
5244 22.0349 15.9679 0
57 18.7735 10.8216 0
4537 17.8208 12.3123 0
14813 20.7821 11.8888 0
2627 21.8712 10.0668 0
322 20.4458 13.0754 0
648 23.1002 10.8513 0
5511 21.6862 12.4591 0
2105 22.9101 13.2252 0
1029 27.2567 11.8018 0
6429 27.4663 13.125 0
2074 27.4141 14.1458 0
5498 27.3731 15.5403 0
5715 28.4678 14.9273 0
1624 31.6113 12.0346 0
14263 32.7044 13.5817 0
14626 31.3173 10.4128 0
5152 33.5254 12.2549 0
4169 34.281 13.2155 0
18141 34.5995 14.2705 0
10337 35.5498 24.8086 0
1946 -5.31576 14.8464 0
14411 -6.49803 13.3195 0
17860 -4.73655 12.5612 0
6106 -1.57567 13.116 0
1178 -0.109356 16.7177 0
376 -1.58491 15.106 0
14251 0.0820776 14.085 0
1469 1.15553 14.3707 0
10044 3.89676 13.6228 0
1907 4.6737 14.4927 0
75 5.66806 14.8488 0
1179 9.40189 17.6763 0
15293 6.58894 15.3541 0
18113 9.74233 16.6731 0
5851 10.0077 14.063 0
14372 7.92561 15.35 0
14641 13.3708 15.6364 0
15219 13.7046 16.6604 0
6441 15.5404 13.1859 0
185 15.8816 18.2143 0
15411 14.5304 15.8642 0
5476 17.9207 13.3995 0
952 18.012 17.3698 0
7482 17.4214 14.3408 0
2651 21.0533 13.8666 0
6137 23.3241 15.4798 0
145 22.1382 14.5262 0
17 22.6759 11.8795 0
14525 23.9144 12.8678 0
1802 25.4855 12.4948 0
1293 26.154 13.6763 0
1264 24.9543 13.4609 0
845 29.0255 13.5228 0
158 28.4447 16.0974 0
15089 29.5995 15.0039 0
840 32.1187 15.0638 0
1689 33.5884 14.7363 0
379 32.9241 17.4246 0
1562 33.8052 16.0444 0
3547 22.0504 75.9977 0
1809 -6.37073 16.4942 0
1303 -3.92578 14.3164 0
9281 -4.90478 16.2033 0
17682 -5.04084 13.7788 0
17813 -2.21626 14.2848 0
14970 -3.05386 15.0874 0
1344 -1.01698 16.1176 0
15171 -2.34816 10.938 0
15184 2.95459 16.119 0
792 -0.0576193 15.1066 0
489 5.06506 15.7219 0
13858 2.59348 15.0294 0
1847 6.10422 16.4284 0
1273 8.36647 16.4238 0
1511 10.5755 17.8144 0
6 13.2116 17.7841 0
796 18.6745 16.4769 0
6870 19.219 14.8025 0
6089 19.6781 15.733 0
8767 21.3411 15.1937 0
14989 23.9656 16.8275 0
9153 24.3566 15.0153 0
2024 23.2083 14.4456 0
2083 25.5833 16.0279 0
1501 25.318 14.5355 0
1592 27.3743 16.6614 0
1998 26.2848 15.075 0
4290 30.0846 16.2943 0
659 31.3923 15.8772 0
527 32.9759 15.5107 0
5976 32.3786 16.4996 0
7426 27.6812 77.1843 0
7026 34.4998 79.1984 0
17821 -5.68888 17.3233 0
9875 -3.81012 18.6384 0
14058 -4.29087 17.3468 0
5305 -4.35398 15.2651 0
679 -3.35488 16.2017 0
685 -3.31645 17.171 0
15107 -2.30319 15.8649 0
1304 -2.22896 17.0187 0
14160 -1.09456 17.1955 0
4273 0.903347 17.1227 0
15871 1.498 15.4424 0
1030 4.50109 16.7301 0
14240 2.84437 17.26 0
6639 7.5644 18.1477 0
4361 9.80848 18.9101 0
1760 11.7067 19.1621 0
15286 9.91416 20.0089 0
760 9.12741 15.5996 0
10324 10.4978 15.9982 0
14822 14.8961 16.9818 0
1224 16.2619 19.2849 0
310 16.8309 16.9603 0
13925 16.6097 15.1507 0
1565 17.0923 18.3917 0
1460 19.094 17.8331 0
1211 18.1276 18.4219 0
7011 21.7549 17.1754 0
1660 24.4891 15.9922 0
586 21.1369 18.0895 0
1090 22.8369 16.5716 0
4336 26.0634 16.8777 0
1487 27.9778 19.2048 0
6774 28.3381 17.2341 0
18148 31.011 16.9152 0
1536 31.6711 19.0797 0
1861 34.3158 17.6829 0
1134 31.8085 17.6217 0
6107 36.2775 66.2818 0
133 36.0605 15.4151 0
5283 33.4932 18.6678 0
10159 -5.03511 18.2169 0
10545 31.6317 77.6032 0
14863 -2.05779 20.4506 0
5248 -2.81418 19.7328 0
15334 -1.62216 19.2853 0
3345 -2.62409 18.6581 0
14056 -0.364589 19.1689 0
13889 -0.958265 18.3133 0
1091 0.330368 20.1798 0
14451 0.227372 18.1751 0
2109 1.84494 17.3057 0
1539 4.54857 18.5063 0
1406 2.53096 18.4018 0
14094 7.15617 16.7074 0
13979 5.3408 17.6059 0
472 3.64467 17.9457 0
15451 6.30973 17.958 0
1408 12.3203 18.2819 0
20 8.19319 20.4737 0
14175 13.6157 18.7726 0
858 11.6328 17.4293 0
6040 14.6332 18.1519 0
15028 14.5063 20.3276 0
1426 15.5384 19.9693 0
16374 17.6708 19.322 0
6396 19.7238 16.9228 0
7027 19.9835 18.3762 0
15039 22.8083 19.568 0
1613 21.8975 18.9948 0
8880 22.4056 18.0185 0
6576 26.7912 17.6148 0
2739 30.3864 17.9201 0
6943 27.9445 20.2847 0
735 29.2167 19.6918 0
2570 29.2045 18.4192 0
673 30.2578 19.1368 0
14953 35.3296 20.6766 0
9527 -6.09325 19.161 0
5555 34.5847 -6.86414 0
15041 -4.08057 19.6604 0
1640 -3.50674 20.6502 0
13883 -1.58192 21.9317 0
1563 -0.881366 20.1373 0
16357 1.43843 18.6133 0
702 2.63374 19.7289 0
14840 3.32063 20.5533 0
14577 1.96693 21.6379 0
1216 4.66871 19.8378 0
2161 5.56037 18.7878 0
693 6.75582 19.041 0
3746 11.0839 20.2066 0
1574 7.46644 21.2951 0
7112 12.7696 19.3357 0
2468 14.5152 21.4899 0
5243 13.4384 20.846 0
4421 16.5438 20.6927 0
261 17.5825 21.7963 0
14918 17.6281 20.555 0
15837 19.3479 19.2106 0
1641 20.8285 19.2354 0
5748 24.1052 20.2796 0
1901 24.3984 17.8373 0
6200 23.5748 18.558 0
1010 25.3641 21.565 0
2884 24.9965 16.9795 0
5599 25.1416 20.3616 0
10586 29.32 20.9806 0
6229 30.0097 20.2397 0
1568 34.3249 19.5326 0
2335 31.1232 20.3717 0
946 31.6576 21.3645 0
2120 34.7996 6.01128 0
6382 26.0585 79.2373 0
9146 -5.04127 20.3875 0
9642 -4.12889 21.6911 0
15083 -2.5696 21.4769 0
14630 0.526693 21.4363 0
1729 -0.846032 23.0099 0
15011 2.57297 22.4772 0
9716 0.781901 22.4999 0
1478 1.58354 20.0451 0
15134 4.07571 21.3431 0
1161 5.4153 20.77 0
1215 5.90341 19.8679 0
1556 6.51172 20.8342 0
15382 9.22172 20.7956 0
2199 8.31521 22.0062 0
15182 12.4497 20.3617 0
15546 11.5427 21.8492 0
2059 12.6451 23.0668 0
7218 16.2275 21.7165 0
2478 16.8474 22.6794 0
2126 19.7824 20.1884 0
5292 18.5186 22.6351 0
11085 18.697 20.6015 0
1050 19.2062 21.5521 0
15344 21.8035 21.3809 0
1043 20.7871 20.8056 0
14326 26.3714 22.0762 0
18023 21.7108 20.2171 0
4166 26.172 20.4051 0
15439 25.9104 18.2714 0
1390 28.37 21.4259 0
6331 27.4313 22.2672 0
6412 31.1607 22.5241 0
6380 32.3631 20.48 0
678 32.9291 19.5275 0
2406 33.0146 78.4701 0
992 33.5355 20.335 0
14361 -3.11201 22.9561 0
8373 32.0518 78.5719 0
151 -0.858088 24.274 0
84 -0.494892 22.0277 0
788 2.42777 23.57 0
17693 0.322822 23.8883 0
1905 4.54129 23.1448 0
14608 6.99618 26.5099 0
2590 7.31095 22.3869 0
15000 6.04758 21.7686 0
6124 8.40188 23.2318 0
1102 9.24514 22.581 0
15833 10.3133 21.0016 0
15015 10.352 22.6594 0
14775 11.9766 24.243 0
15045 14.0286 25.8215 0
2753 13.5994 22.2431 0
1210 13.7221 23.6125 0
880 14.8791 23.0354 0
2269 17.6199 23.4806 0
2453 19.8763 22.3346 0
1250 22.1205 23.3748 0
1686 21.0442 22.7589 0
6875 24.2047 21.7366 0
5120 22.8415 20.9174 0
7041 24.2073 23.0999 0
15504 25.0997 22.5781 0
2402 28.128 23.1171 0
549 27.4734 24.5312 0
2241 29.2258 22.0978 0
1053 30.0047 22.8566 0
1508 27.0362 20.9502 0
2426 30.2108 21.663 0
6359 32.9714 21.297 0
2420 33.1676 23.2954 0
2180 33.3955 22.2923 0
3122 -6.06112 50.0065 0
71 34.9855 27.1641 0
1155 35.037 22.1301 0
14197 35.2173 23.5607 0
2258 -5.57543 23.0411 0
10033 35.9596 48.3843 0
14801 -2.95144 23.9833 0
10200 -3.43402 25.4991 0
14293 -1.85838 22.8953 0
15437 -2.19114 24.7716 0
15202 1.38048 23.6465 0
15519 2.23106 24.8021 0
15452 4.44686 24.6287 0
13736 3.63267 22.3093 0
15181 7.15021 24.944 0
14941 5.61093 24.1246 0
14986 4.81221 22.0855 0
4328 5.60668 26.5846 0
1759 6.79933 23.3877 0
15276 9.46634 23.6827 0
1429 11.4812 23.0701 0
1113 11.5905 25.2643 0
2439 14.3201 24.552 0
17619 13.5134 26.9874 0
6132 16.8988 24.2044 0
15610 18.8829 23.9176 0
2696 19.7051 23.345 0
6432 21.0496 23.9035 0
5855 21.4955 24.9908 0
222 22.4304 24.3775 0
6801 27.1413 23.3906 0
560 23.2486 23.0974 0
4402 27.4294 25.7903 0
5543 29.0104 25.6986 0
741 29.7335 24.8376 0
10317 30.9158 24.1234 0
1787 32.1855 22.2825 0
7277 31.8692 23.3594 0
5950 32.3641 24.4735 0
1596 34.2438 22.9587 0
15419 33.5381 25.6414 0
15639 -6.60526 23.4406 0
14620 -2.50112 26.0082 0
1985 -3.25884 26.7235 0
1521 -1.46632 25.7322 0
1184 0.99662 24.6229 0
14344 0.640396 25.8863 0
14759 3.48335 24.0235 0
1500 3.14317 25.2518 0
786 4.94411 25.6275 0
15014 3.99092 26.1738 0
9818 8.76588 27.8962 0
14718 8.9093 25.0057 0
3869 9.72051 25.8228 0
15157 12.4902 25.7087 0
1236 10.5617 23.8245 0
244 15.1954 26.1293 0
445 16.4621 26.0277 0
14724 17.888 24.5459 0
1088 17.8331 25.6948 0
6799 19.1221 25.0902 0
1365 18.8709 26.0772 0
4455 20.3335 24.8883 0
6230 22.3314 26.0243 0
1812 26.0942 23.522 0
2341 23.1421 25.2668 0
817 26.0459 26.1974 0
6463 26.8959 29.1269 0
6161 30.0085 26.2426 0
5723 27.4682 28.2101 0
7370 32.2377 26.0346 0
15280 33.4351 24.3516 0
14660 -7.15911 1.95587 0
1841 -5.68243 27.0577 0
1415 -4.71385 27.3962 0
1397 -4.42591 24.7214 0
2280 -0.474007 26.6713 0
10842 -0.821083 27.776 0
2678 -0.364046 25.2677 0
867 2.90953 26.5499 0
14287 3.81015 27.2364 0
4365 5.86616 22.8914 0
1912 6.15902 27.6718 0
511 8.21253 26.6978 0
14460 11.1633 27.4469 0
4558 11.9656 26.6095 0
73 12.8001 27.6722 0
15137 12.8658 28.6103 0
2412 14.3105 30.2839 0
2087 14.165 28.8246 0
5789 18.2639 27.4344 0
6401 20.397 27.2371 0
2455 19.8996 25.9138 0
14552 20.9855 25.9906 0
5884 25.0985 23.8384 0
6195 24.8868 25.5262 0
2677 27.4344 27.195 0
15119 26.2437 28.1672 0
1884 28.5181 26.7157 0
5956 28.6108 27.8399 0
6084 30.7877 25.2641 0
3590 21.4515 79.737 0
15029 -5.2733 25.4872 0
15739 -3.80671 27.9496 0
3762 -4.64513 26.3851 0
2136 -0.861161 29.1786 0
6971 0.409879 27.4543 0
13944 1.31409 26.6514 0
13963 1.24875 28.5728 0
1712 2.29329 30.7601 0
14242 4.14872 28.559 0
14594 4.90632 27.7768 0
16294 9.72241 28.931 0
1156 6.03095 25.3714 0
1620 7.66514 27.848 0
6591 10.7492 25.952 0
987 10.0234 24.8246 0
6123 10.0935 26.7635 0
551 11.3362 28.8385 0
2267 16.0214 30.0254 0
1170 12.0799 31.1921 0
1532 12.5023 29.4984 0
1892 17.1255 26.9499 0
15301 15.5156 27.9041 0
2349 18.0548 28.5279 0
4168 19.3806 27.9899 0
409 17.0634 28.1902 0
14583 18.9957 29.9724 0
2033 20.0994 29.4185 0
863 20.5215 28.4408 0
6502 22.8138 26.8681 0
10682 23.8855 27.9611 0
1746 22.843 28.8728 0
831 25.5819 24.718 0
5718 23.7061 26.2963 0
5784 29.779 27.3337 0
2061 28.0353 29.0762 0
6304 31.1749 26.3132 0
16607 30.6304 28.9849 0
6744 31.5259 27.3299 0
15077 33.1523 26.729 0
11154 27.3139 79.6712 0
2394 34.9765 29.837 0
14348 -6.76697 28.9133 0
1355 -5.6169 28.0647 0
9234 -5.46268 29.3423 0
15359 -4.64878 28.6114 0
16474 -2.08077 26.8829 0
1691 -1.95025 28.7507 0
16438 -2.09815 30.0028 0
15375 2.034 29.0402 0
11483 0.992421 30.2134 0
2279 1.91901 27.5886 0
15074 2.71675 29.7473 0
2171 7.82061 29.3818 0
15317 5.38791 29.8331 0
1807 6.20244 31.6829 0
15616 9.60175 30.2654 0
1591 11.5806 30.0901 0
1177 10.5452 29.6469 0
17754 12.4986 32.1925 0
6959 13.5577 31.0662 0
1582 15.6515 29.0453 0
14613 18.3353 30.8219 0
6341 21.8142 28.3054 0
7120 24.6524 27.2244 0
7029 23.8744 29.403 0
1465 29.3531 28.8306 0
2025 29.7192 29.8785 0
2157 35.0248 28.7804 0
6702 29.1029 30.9468 0
16004 -6.20105 55.9755 0
1231 33.3396 27.7312 0
1493 33.9573 4.5525 0
1383 -4.32745 30.739 0
14463 -5.03752 33.1046 0
15141 -2.68226 27.9957 0
6096 -3.49415 31.3797 0
3384 -0.121517 30.5109 0
2718 0.243703 29.5182 0
1977 1.12247 33.6177 0
1068 -1.23999 30.7219 0
15495 1.70618 32.5304 0
15748 3.63824 30.7916 0
6225 0.657381 34.6444 0
2612 2.43532 33.8526 0
2079 5.70936 33.19 0
192 5.0343 31.4257 0
6023 7.13779 30.7879 0
15310 8.54687 30.3439 0
15048 9.12337 31.2072 0
15271 11.4873 33.2207 0
6032 13.0374 33.1398 0
2237 15.5595 31.1631 0
2303 10.6783 31.1103 0
3843 16.8292 29.2182 0
6065 17.5061 32.3475 0
6913 17.9152 33.3106 0
2252 20.4709 30.5688 0
15132 19.3315 30.9534 0
15839 20.2078 31.7545 0
6307 21.1322 29.4925 0
15112 21.9591 30.2719 0
7829 24.459 30.5761 0
2569 25.213 28.0962 0
1992 27.4313 30.3195 0
1915 28.4591 30.0333 0
2645 31.7531 29.2974 0
7617 30.755 30.2829 0
5344 33.8443 28.9701 0
6966 35.2577 30.9183 0
3856 33.4638 79.9314 0
1283 34.2639 31.5161 0
1266 -5.76224 30.6165 0
1837 -6.20056 31.7759 0
876 -4.22479 29.6724 0
16310 -4.35151 33.8314 0
5285 -2.09594 31.8572 0
15106 -4.4253 31.9733 0
18209 0.173757 32.611 0
2103 1.87569 35.7165 0
1200 1.77018 34.7485 0
2775 7.43531 32.6881 0
1405 8.51605 33.3035 0
6264 9.2312 32.3035 0
15400 11.3364 31.8432 0
1890 10.707 35.3184 0
1403 12.5974 34.0903 0
1340 14.2794 33.5777 0
7148 16.533 30.9101 0
6261 15.0674 34.6779 0
1820 15.9614 32.576 0
5751 13.978 32.0522 0
2579 16.0243 33.7165 0
9411 19.8098 32.9572 0
3285 19.0284 32.0073 0
7174 21.6815 32.3783 0
1732 22.7626 33.7679 0
2511 21.3252 31.3784 0
5679 22.783 32.138 0
2609 23.6376 31.5702 0
6677 25.1669 31.5543 0
15018 26.755 31.8418 0
2029 29.9234 31.6833 0
2466 29.0117 32.3564 0
6874 30.8903 33.2463 0
5845 32.6521 28.6811 0
7253 32.8931 30.0064 0
6273 34.0257 30.3722 0
1079 34.3061 34.0269 0
14677 -5.62662 -0.867625 0
15484 -7.11485 32.9654 0
17725 -5.87389 33.7965 0
227 -3.28398 32.4255 0
2639 -3.79468 35.3352 0
2035 -2.09952 33.5114 0
2404 0.710609 31.3265 0
13853 -1.29298 32.6165 0
14424 -0.557949 35.7868 0
14672 5.80712 34.737 0
1740 3.43812 31.9409 0
15321 8.55084 34.526 0
444 7.20827 33.7817 0
7111 9.52326 33.9868 0
16276 10.2988 32.2625 0
6784 11.1205 34.3696 0
14560 13.4206 34.6579 0
1000 16.0416 34.7935 0
10003 18.829 33.7561 0
1806 19.4353 34.7879 0
6274 17.6885 34.3912 0
5274 20.4547 34.2601 0
13754 22.5547 31.2203 0
977 21.8657 33.3408 0
3024 21.863 34.3567 0
2243 23.5932 36.2013 0
14833 24.0865 33.6275 0
1728 26.4616 30.7852 0
5829 27.977 31.298 0
1352 23.8595 32.5337 0
2398 29.4288 33.2424 0
1716 28.1368 34.89 0
1903 31.3616 32.1995 0
5923 32.7701 32.5475 0
11858 31.7034 31.0657 0
10643 35.3192 32.4974 0
1673 33.5498 34.8067 0
5933 35.3104 33.679 0
15518 -6.49053 35.3435 0
6320 35.9286 -3.33174 0
2857 -5.72649 36.086 0
15707 -4.79218 34.8957 0
176 -3.03023 34.6539 0
10749 -2.80628 36.0255 0
14979 -1.75644 34.8642 0
3187 -0.454119 33.6565 0
799 -0.317311 37.0791 0
1554 1.466 36.8969 0
10064 0.700108 35.8736 0
16564 2.43846 36.6443 0
2167 3.69941 33.6098 0
2257 4.97707 35.4219 0
16204 4.49244 34.3987 0
15541 7.54619 34.7455 0
6233 5.55976 36.4681 0
16080 9.53647 35.0205 0
15441 11.1722 36.6422 0
6636 12.2678 37.1852 0
1975 12.0734 35.4491 0
1163 17.4396 35.5599 0
6142 14.1133 35.5853 0
14692 19.936 36.7941 0
6199 21.1353 36.6124 0
5930 20.2736 35.6932 0
15474 21.3545 35.5005 0
6612 22.6104 35.7021 0
949 25.0631 36.5904 0
1151 24.2761 35.2636 0
1767 26.4319 33.8866 0
6563 26.2639 32.8756 0
2538 28.1374 35.9575 0
6238 30.0941 34.0749 0
1564 32.8201 31.3177 0
2481 32.0285 33.4598 0
1137 31.1075 34.3474 0
9319 35.4705 35.9707 0
352 33.9139 32.7223 0
1431 0.466322 -5.77398 0
7015 36.0212 31.6407 0
3144 -4.66451 36.1543 0
764 -1.49409 37.3592 0
1789 2.36446 38.804 0
14258 0.008926 39.1761 0
14360 -0.494173 38.3018 0
336 -1.62663 36.083 0
15189 1.12722 37.9253 0
3519 3.01965 35.7297 0
3651 6.03568 37.5199 0
16005 7.04892 35.6709 0
452 8.70749 35.8266 0
6406 7.83973 36.5723 0
1351 10.219 36.9483 0
2151 11.535 38.259 0
8203 13.3378 36.6858 0
2189 14.0635 39.0579 0
5731 14.303 37.0557 0
6715 14.6932 41.1589 0
1092 18.4766 35.954 0
6483 18.8199 37.2176 0
729 23.3117 39.0746 0
16105 20.1169 37.8744 0
1952 22.2859 38.8185 0
1468 23.0373 37.2605 0
1416 24.9801 34.2826 0
1883 26.9954 38.2304 0
11097 27.5338 39.1278 0
5547 26.0578 35.6508 0
6723 26.8198 34.9375 0
5345 26.6638 37.1672 0
7013 27.0468 36.0873 0
6545 29.8633 35.2868 0
6608 33.244 33.583 0
1768 32.3731 34.5899 0
5664 32.716 36.2295 0
942 33.8779 37.0896 0
14684 -6.31105 37.8743 0
6937 -5.00233 37.124 0
14664 -3.0377 38.0688 0
14095 -3.56756 36.9587 0
1870 -1.51739 38.5911 0
1974 0.228795 40.3942 0
4066 -0.978939 39.6974 0
2117 2.2923 37.7142 0
3721 3.78626 37.5953 0
1109 3.525 38.9834 0
2532 3.38778 34.5719 0
6326 4.40226 36.4186 0
2262 7.0338 37.2324 0
15362 8.08533 37.5999 0
2331 8.94419 36.8036 0
1616 9.90591 35.9899 0
6688 9.70336 37.8473 0
1350 10.5649 39.0088 0
6671 12.6767 38.7426 0
5931 14.064 40.1023 0
6222 17.1906 36.6881 0
5932 18.1769 39.1943 0
2413 19.1552 38.3007 0
14098 24.1593 39.6791 0
15176 23.0005 40.2906 0
5961 24.5346 37.7878 0
2187 25.7665 37.8218 0
7155 26.2055 38.9859 0
7059 30.8644 37.4873 0
8968 28.0139 37.0762 0
6073 29.5626 37.914 0
7115 31.7354 35.3022 0
6345 31.5296 36.6614 0
5697 35.7981 3.49765 0
10505 -4.23699 37.9745 0
6665 -5.29262 38.3202 0
5782 -4.26917 39.2274 0
15684 -2.91462 39.3164 0
3197 -2.54703 37.0465 0
6936 -2.27858 41.0172 0
15308 -2.0307 39.9293 0
1674 4.20337 40.4006 0
2517 2.68516 41.894 0
3291 3.23959 40.8657 0
7685 4.80855 37.8332 0
6598 5.97245 38.6069 0
2091 6.87687 39.5313 0
2634 7.41832 38.4656 0
2170 8.98903 38.6517 0
1800 8.52434 40.4285 0
6845 9.29515 39.6977 0
1827 12.8657 39.841 0
2664 16.3023 35.9644 0
2445 16.2107 37.4574 0
3125 18.1587 38.1497 0
975 16.9853 38.3566 0
1959 16.1235 40.9131 0
1888 18.2871 40.6867 0
1777 19.1023 39.7361 0
6601 20.0902 38.8879 0
2123 24.9111 38.8873 0
6256 26.7183 40.5228 0
918 29.3662 38.8924 0
2879 28.1143 38.2831 0
1528 30.9907 39.5988 0
979 29.5148 36.2668 0
6475 31.9394 37.6024 0
2501 34.3405 39.6861 0
5692 35.0637 43.5906 0
6540 31.9163 40.0733 0
5561 32.5927 38.9863 0
15063 -5.37863 39.5791 0
2703 -6.38432 39.0055 0
6090 -3.14243 40.473 0
7328 -3.68424 42.3367 0
545 -4.1186 41.1418 0
2085 -2.65914 42.0704 0
750 0.631857 41.9781 0
6905 0.751644 43.2375 0
2225 1.15557 41.035 0
2437 2.31718 40.0349 0
6829 3.90253 41.639 0
3480 4.57383 39.2428 0
6499 6.63415 40.8851 0
5802 8.09409 41.5877 0
6669 11.6732 39.784 0
6411 14.7034 42.3037 0
1960 12.9514 40.9145 0
2643 15.0729 37.7125 0
1130 15.3811 36.6095 0
15037 15.1931 40.1208 0
1335 16.0657 39.1074 0
1936 18.108 41.6681 0
1481 20.3952 40.0074 0
2377 23.2658 43.1143 0
1463 21.4739 39.9023 0
6098 25.7303 39.871 0
7151 21.6959 41.3439 0
6496 28.2039 39.9651 0
6935 29.161 40.7455 0
2644 27.8021 42.048 0
5610 30.1938 40.5796 0
6093 30.5887 36.3621 0
5780 32.9812 37.7043 0
4526 32.583 41.1003 0
6651 35.4689 59.4398 0
6918 24.5873 77.9212 0
15679 -6.94762 15.5985 0
1771 -5.23289 40.839 0
16168 -6.79446 65.8683 0
15433 -4.89789 42.1885 0