ITEM: TIMESTEP
19000
ITEM: NUMBER OF ATOMS
1208
ITEM: BOX BOUNDS pp pp pp
-5.8996296730201676e+00 3.5899629673019604e+01
-5.1130123832844996e+00 3.1113012383284268e+01
-5.0000000000000000e-01 5.0000000000000000e-01
ITEM: ATOMS id type x y z
2 1 -4.70716 -3.81534 0
69 1 -5.81477 -3.90698 0
1 1 -5.33415 -4.7703 0
3 1 -4.10686 -4.61311 0
4 1 -3.68012 -3.56176 0
5 1 -2.82949 -4.32256 0
6 1 -2.36701 -3.40596 0
7 1 -1.76024 -4.38414 0
9 1 -0.683544 -4.2436 0
11 1 0.617598 -4.54274 0
12 1 1.05984 -3.39574 0
14 1 2.54832 -3.55146 0
13 1 1.68235 -4.46796 0
15 1 3.04708 -4.58422 0
18 1 4.96326 -3.42522 0
17 1 4.20936 -4.18523 0
20 1 6.20477 -3.38792 0
19 1 5.7629 -4.50066 0
21 1 6.97574 -4.41398 0
22 1 7.34998 -3.46288 0
24 1 8.47414 -3.48225 0
23 1 8.05112 -4.49571 0
26 1 9.77505 -3.71569 0
25 1 9.2163 -4.5843 0
27 1 10.4338 -4.67438 0
28 1 11.2268 -3.52327 0
29 1 11.5207 -4.61461 0
30 1 12.2887 -3.8091 0
31 1 12.5587 -4.87816 0
32 1 13.3543 -3.46335 0
33 1 13.8307 -4.47547 0
34 1 14.6155 -3.56795 0
35 1 15.1108 -4.61524 0
36 1 15.6597 -3.40968 0
37 1 16.7755 -4.54353 0
38 1 16.7928 -3.44265 0
39 1 18.0117 -4.74918 0
40 1 18.0091 -3.6892 0
41 1 19.1743 -4.83244 0
43 1 20.4022 -5.01473 0
42 1 19.8506 -4.05804 0
44 1 21.0155 -4.18788 0
47 1 22.782 -5.10027 0
46 1 22.0847 -4.2006 0
48 1 23.1153 -4.01986 0
50 1 24.2992 -4.07762 0
52 1 25.7268 -4.5117 0
54 1 27.0214 -4.17854 0
56 1 28.2321 -4.28838 0
59 1 29.8476 -4.75578 0
58 1 29.2742 -3.86601 0
61 1 31.0913 -4.89821 0
60 1 30.4625 -3.89019 0
62 1 31.689 -3.6846 0
63 1 32.435 -4.44858 0
65 1 33.5428 -4.27964 0
64 1 32.791 -3.4421 0
66 1 34.0171 -3.36236 0
67 1 34.7256 -4.24983 0
1208 1 35.3809 -5.03684 0
70 1 -5.36056 -2.88083 0
72 1 -4.21133 -2.64229 0
71 1 -4.91396 -1.88537 0
74 1 -3.095 -2.65723 0
73 1 -3.70142 -1.71585 0
75 1 -2.55691 -1.56858 0
8 1 -1.30448 -3.28582 0
76 1 -1.81414 -2.2844 0
78 1 -0.691511 -2.391 0
10 1 -0.0696689 -3.25104 0
80 1 0.475204 -2.10751 0
82 1 1.98446 -2.51961 0
84 1 3.02158 -2.04761 0
16 1 3.60451 -3.19753 0
86 1 4.10847 -2.13988 0
88 1 5.27508 -2.29945 0
90 1 6.83231 -2.26868 0
92 1 7.86064 -2.48596 0
94 1 8.92536 -2.33241 0
96 1 10.1132 -2.57073 0
98 1 11.6818 -2.28779 0
100 1 12.8737 -2.50975 0
102 1 14.0398 -2.4969 0
104 1 15.1398 -2.45315 0
106 1 16.29 -2.47041 0
107 1 16.9897 -1.59088 0
108 1 17.6242 -2.57538 0
110 1 18.6215 -2.60089 0
111 1 19.3411 -1.73998 0
112 1 19.7326 -2.82814 0
113 1 20.8224 -2.11713 0
114 1 21.343 -3.20174 0
116 1 22.4046 -3.20813 0
115 1 21.9776 -2.09687 0
117 1 23.123 -1.93671 0
118 1 23.7511 -3.02298 0
119 1 24.2005 -1.90424 0
120 1 24.7631 -3.09159 0
122 1 26.0215 -3.22974 0
123 1 26.6162 -2.06882 0
121 1 25.3565 -2.1786 0
124 1 27.3726 -3.14393 0
126 1 28.6072 -2.92273 0
125 1 27.7532 -2.10847 0
128 1 29.8632 -2.8275 0
129 1 30.1374 -1.76727 0
127 1 28.9251 -1.87996 0
130 1 30.9113 -2.7539 0
131 1 31.4175 -1.72319 0
132 1 31.9746 -2.62073 0
134 1 33.31 -2.5259 0
133 1 32.6595 -1.53183 0
138 1 35.7615 -1.93281 0
68 1 35.3325 -2.99851 0
136 1 34.428 -2.34921 0
139 1 -5.38195 -0.909236 0
141 1 -4.35321 -0.577566 0
143 1 -3.06704 -0.471177 0
77 1 -0.998729 -1.20106 0
145 1 -1.98258 -0.39398 0
147 1 -0.818142 -0.161945 0
79 1 -0.0263875 -0.893678 0
81 1 1.35452 -1.24484 0
149 1 0.564326 -0.0568289 0
83 1 2.43737 -1.01636 0
151 1 1.63749 -0.0848356 0
153 1 2.82462 -0.00314174 0
85 1 3.47127 -1.06177 0
87 1 4.69461 -1.19005 0
155 1 3.99969 0.0244825 0
89 1 5.75773 -0.972509 0
157 1 5.15129 0.0262969 0
159 1 6.35188 0.0103092 0
91 1 7.23964 -1.19764 0
93 1 8.36633 -1.39989 0
161 1 7.6436 -0.263452 0
95 1 9.7978 -1.46431 0
163 1 9.10148 -0.546556 0
97 1 11.1731 -1.2733 0
165 1 10.7362 -0.218908 0
167 1 11.8311 -0.419431 0
99 1 12.4204 -1.38057 0
101 1 13.5999 -1.39789 0
169 1 12.9666 -0.540084 0
103 1 14.6941 -1.3592 0
105 1 15.8369 -1.47604 0
171 1 14.1031 -0.475083 0
173 1 15.335 -0.428493 0
175 1 16.5487 -0.553683 0
177 1 17.7033 -0.53933 0
109 1 18.299 -1.46042 0
179 1 19.141 -0.577795 0
181 1 20.2936 -0.911038 0
182 1 20.9532 0.00487199 0
180 1 19.8783 0.139213 0
183 1 21.3854 -1.05089 0
185 1 22.6363 -0.873231 0
184 1 21.9846 0.0730472 0
187 1 23.7646 -0.906044 0
189 1 24.9389 -1.00762 0
186 1 23.2689 0.0871632 0
188 1 24.3307 0.0545153 0
191 1 26.0472 -1.11059 0
190 1 25.5083 -0.0190736 0
192 1 26.6145 0.0223695 0
193 1 27.1682 -1.11378 0
195 1 28.1919 -1.02288 0
194 1 27.6691 0.0336494 0
197 1 29.2858 -0.79955 0
196 1 28.7545 0.147107 0
198 1 30.078 0.185104 0
199 1 30.6892 -0.817907 0
201 1 31.9137 -0.737447 0
200 1 31.2181 0.291395 0
203 1 33.1877 -0.588175 0
135 1 33.7797 -1.45152 0
207 1 35.7448 -0.128017 0
137 1 35.0705 -0.957394 0
205 1 34.4518 0.00531096 0
140 1 -4.87613 0.335976 0
208 1 -5.52785 1.10606 0
210 1 -4.3411 1.66451 0
142 1 -3.71852 0.584893 0
144 1 -2.58737 0.624532 0
212 1 -3.1797 1.65775 0
146 1 -1.29376 0.817093 0
214 1 -1.82896 1.78494 0
216 1 -0.656561 1.71981 0
148 1 -0.142156 0.713145 0
150 1 1.06863 0.869977 0
218 1 0.400215 1.82819 0
152 1 2.21836 1.03525 0
220 1 1.50463 1.97059 0
222 1 2.85491 2.05451 0
154 1 3.32071 1.08638 0
156 1 4.44099 1.05573 0
224 1 3.95223 1.93497 0
158 1 5.60109 1.00758 0
226 1 5.13957 1.97096 0
228 1 6.30997 2.01649 0
160 1 7.29155 0.80522 0
230 1 7.55057 1.94386 0
162 1 8.70337 0.506498 0
164 1 9.92791 0.507716 0
232 1 9.3202 1.48743 0
166 1 10.9558 0.816318 0
234 1 10.4569 1.71223 0
168 1 12.0658 0.581486 0
236 1 11.5988 1.69543 0
170 1 13.3295 0.547291 0
238 1 12.7461 1.45653 0
240 1 13.8218 1.46006 0
174 1 15.8851 0.412973 0
172 1 14.6812 0.447248 0
242 1 14.9739 1.52802 0
176 1 16.9975 0.50094 0
244 1 16.2803 1.49185 0
246 1 17.6281 1.45833 0
178 1 18.1931 0.406571 0
248 1 18.8113 1.28397 0
250 1 20.035 1.20437 0
251 1 20.8462 2.02304 0
252 1 21.5238 1.10392 0
254 1 22.6184 0.969443 0
253 1 22.0305 2.07063 0
255 1 23.12 1.92429 0
256 1 23.8114 1.02212 0
258 1 24.9046 0.960123 0
257 1 24.2703 2.02512 0
260 1 26.091 1.03866 0
259 1 25.289 1.95698 0
261 1 26.3578 2.07717 0
262 1 27.156 1.13771 0
264 1 28.3384 1.2162 0
266 1 29.4764 1.05283 0
268 1 30.6204 1.11404 0
270 1 32.2066 1.42206 0
269 1 31.3469 2.08868 0
202 1 32.7714 0.535816 0
272 1 33.1858 1.69159 0
204 1 33.8816 0.931746 0
206 1 35.1671 0.834302 0
274 1 34.5045 1.86873 0
209 1 -4.9223 2.73324 0
279 1 -4.16051 3.66341 0
345 1 -5.87282 3.26957 0
211 1 -3.81122 2.6147 0
213 1 -2.47013 2.68692 0
281 1 -3.11977 3.57774 0
215 1 -1.20283 2.71769 0
283 1 -1.869 3.57677 0
285 1 -0.63104 3.72894 0
217 1 -0.0329197 2.77904 0
219 1 1.06038 3.01744 0
287 1 0.506026 3.89647 0
221 1 2.17477 3.06301 0
223 1 3.47158 2.94581 0
225 1 4.59364 3.02827 0
227 1 5.73169 2.95646 0
229 1 6.94022 2.97144 0
231 1 8.65671 2.35226 0
233 1 9.69268 2.59439 0
303 1 9.91249 3.66799 0
235 1 10.9759 2.72815 0
305 1 11.3193 3.69387 0
237 1 12.307 2.50077 0
307 1 12.4585 3.57052 0
239 1 13.3509 2.52823 0
309 1 13.9546 3.60233 0
241 1 14.5693 2.51498 0
243 1 15.8399 2.51587 0
311 1 15.0546 3.51887 0
313 1 16.3088 3.46114 0
245 1 16.913 2.37151 0
315 1 17.4567 3.56121 0
247 1 17.9457 2.55179 0
317 1 18.5995 3.5448 0
249 1 19.1335 2.21024 0
319 1 20.0236 2.91663 0
321 1 21.1364 3.17919 0
323 1 22.2928 3.48824 0
325 1 23.3598 3.38316 0
327 1 24.4244 3.17323 0
329 1 25.6761 2.97014 0
263 1 27.6471 2.18279 0
331 1 27.0462 3.1912 0
333 1 28.2055 3.27143 0
265 1 28.8446 2.22164 0
267 1 30.0287 2.37091 0
335 1 29.2928 3.31931 0
339 1 31.5664 3.20675 0
337 1 30.4886 3.31972 0
271 1 32.3846 2.46973 0
273 1 33.6497 2.67206 0
341 1 32.7315 3.5462 0
343 1 33.863 3.7909 0
276 1 35.8739 2.20041 0
275 1 34.7268 3.01868 0
277 1 -4.94532 4.35573 0
278 1 -4.28597 5.36777 0
414 1 -5.68763 5.39847 0
280 1 -3.53969 4.64205 0
282 1 -2.32883 4.59795 0
350 1 -3.00618 5.70221 0
284 1 -1.27005 4.66797 0
352 1 -1.94101 5.62613 0
286 1 -0.0981411 4.93215 0
288 1 1.14094 4.9633 0
289 1 1.69459 4.00488 0
291 1 2.8255 4.0031 0
290 1 2.26506 4.89763 0
293 1 4.01055 3.99231 0
292 1 3.48438 5.09116 0
294 1 4.67904 5.00216 0
295 1 5.21186 3.97566 0
297 1 6.25988 4.035 0
296 1 5.75177 5.03092 0
299 1 7.42254 4.03672 0
298 1 6.87741 4.97063 0
300 1 7.97761 4.8795 0
301 1 8.67159 4.00324 0
302 1 9.39917 4.90662 0
304 1 10.6079 4.62968 0
306 1 12.156 4.56111 0
374 1 11.3827 5.43726 0
308 1 13.2924 4.61864 0
378 1 13.8607 5.74101 0
376 1 12.7839 5.70654 0
310 1 14.3164 4.73843 0
380 1 14.9726 5.60463 0
312 1 15.5582 4.50212 0
382 1 16.2492 5.40522 0
314 1 16.7975 4.45049 0
384 1 17.331 5.52004 0
316 1 17.9211 4.57169 0
386 1 18.4738 5.53751 0
318 1 19.1025 4.58018 0
320 1 20.106 4.0972 0
388 1 19.6213 5.53255 0
390 1 20.6486 5.13285 0
322 1 21.2602 4.23835 0
324 1 22.9041 4.35373 0
392 1 21.9533 5.03805 0
326 1 24.0605 4.17679 0
394 1 23.494 5.25257 0
396 1 24.5836 5.47516 0
328 1 25.1922 4.19225 0
330 1 26.3986 4.00464 0
398 1 25.735 5.38252 0
332 1 27.5364 4.37995 0
400 1 26.8262 5.1977 0
402 1 28.2192 5.26135 0
334 1 28.8081 4.33149 0
336 1 29.937 4.29605 0
404 1 29.4299 5.1867 0
338 1 31.1889 4.17826 0
408 1 31.8997 5.2892 0
406 1 30.5988 5.27226 0
340 1 32.9578 4.81844 0
342 1 33.9348 5.56477 0
344 1 35.7422 4.35904 0
346 1 -4.76128 6.5446 0
347 1 -5.47778 7.4653 0
413 1 -5.79801 6.46947 0
348 1 -3.56387 6.55318 0
351 1 -2.45176 6.64368 0
354 1 -0.858154 5.81207 0
353 1 -1.27069 6.80113 0
356 1 0.409074 6.0315 0
355 1 -0.0983607 6.97798 0
357 1 1.06615 6.94349 0
358 1 1.8552 6.10267 0
360 1 2.90769 6.15591 0
359 1 2.35388 7.16587 0
361 1 3.45657 7.06998 0
362 1 4.11633 6.16942 0
363 1 4.67952 7.25583 0
366 1 6.33829 6.05731 0
364 1 5.25781 5.92452 0
365 1 5.79241 6.92886 0
368 1 7.64797 5.91181 0
367 1 7.04305 6.93707 0
369 1 8.21616 6.84829 0
370 1 8.69168 5.80251 0
372 1 10.2613 5.8019 0
371 1 9.55864 6.8802 0
373 1 10.9312 6.63229 0
375 1 11.9952 6.54356 0
443 1 11.4607 7.5593 0
377 1 13.2367 6.67605 0
379 1 14.4472 6.79353 0
381 1 15.5632 6.51318 0
383 1 16.6986 6.515 0
453 1 17.1868 7.5287 0
385 1 17.9531 6.45219 0
387 1 19.0075 6.53933 0
455 1 18.5087 7.55657 0
457 1 19.7612 7.33051 0
389 1 20.2649 6.43764 0
459 1 20.9532 7.49525 0
391 1 21.3644 6.39987 0
393 1 22.6744 6.36799 0
461 1 22.028 7.32321 0
395 1 23.9854 6.48595 0
463 1 23.2448 7.53508 0
465 1 24.708 7.47821 0
397 1 25.1413 6.348 0
399 1 26.3912 6.19218 0
467 1 25.8588 7.11737 0
401 1 27.4333 6.13468 0
403 1 28.6224 6.28548 0
469 1 27.1538 7.16725 0
471 1 28.143 7.26743 0
405 1 29.7476 6.16557 0
473 1 29.3371 7.23978 0
407 1 30.8799 6.22624 0
409 1 31.7998 6.61513 0
475 1 30.6342 7.30403 0
410 1 32.8299 5.95985 0
481 1 32.8764 7.06258 0
411 1 33.9937 6.78015 0
412 1 35.0378 6.0216 0
483 1 35.1418 7.1319 0
349 1 -4.44165 7.58619 0
417 1 -5.19597 8.60773 0
418 1 -4.08561 8.58277 0
419 1 -3.32167 7.74844 0
420 1 -2.67965 8.78248 0
421 1 -2.03063 7.89822 0
423 1 -0.74653 7.89781 0
422 1 -1.49661 8.87598 0
425 1 0.746833 7.88947 0
424 1 -0.00385386 8.83294 0
426 1 1.12347 9.17052 0
427 1 1.78371 8.05079 0
429 1 2.87631 8.18277 0
428 1 2.12866 9.19555 0
430 1 3.32792 9.26899 0
431 1 3.95439 8.36082 0
432 1 4.82372 9.08428 0
433 1 5.46063 7.99106 0
435 1 6.58189 8.01584 0
434 1 5.82974 9.18045 0
436 1 7.0877 9.04135 0
437 1 7.78512 7.83717 0
438 1 8.11784 8.82131 0
439 1 8.89253 7.83164 0
441 1 10.2481 7.86087 0
440 1 9.33484 8.80406 0
442 1 10.4186 8.97263 0
444 1 11.5988 8.89443 0
445 1 12.6794 7.58015 0
447 1 13.8484 7.68893 0
446 1 12.9377 8.88831 0
448 1 14.4404 8.63975 0
449 1 15.0627 7.71392 0
450 1 15.4975 8.87 0
451 1 16.1446 7.61651 0
452 1 16.8734 8.52051 0
454 1 17.9823 8.68492 0
456 1 19.1426 8.58786 0
458 1 20.2719 8.30165 0
460 1 21.2583 8.65753 0
462 1 22.6729 8.46618 0
464 1 23.841 8.3931 0
534 1 24.5351 9.25592 0
466 1 25.2312 8.40626 0
468 1 26.3201 8.23657 0
536 1 25.784 9.25874 0
470 1 27.5583 8.26755 0
540 1 28.0813 9.34277 0
474 1 29.9713 8.22348 0
472 1 28.9185 8.16969 0
542 1 29.2499 9.34944 0
544 1 30.272 9.25251 0
477 1 32.1191 7.76382 0
476 1 31.1842 8.42468 0
479 1 33.3339 8.0046 0
478 1 32.4535 8.83689 0
480 1 33.5381 9.1966 0
415 1 35.5143 8.12633 0
482 1 34.3954 8.14311 0
552 1 34.7347 9.26411 0
416 1 35.7891 9.26498 0
486 1 -4.66303 9.55242 0
485 1 -5.31224 10.3491 0
487 1 -4.08689 10.4844 0
488 1 -3.47858 9.58919 0
489 1 -2.88868 10.4543 0
490 1 -2.02132 9.88515 0
492 1 -0.825973 9.73753 0
491 1 -1.56216 10.9147 0
494 1 0.271193 10.2147 0
495 1 1.01611 11.1722 0
496 1 1.52619 10.2251 0
498 1 2.81936 10.2921 0
500 1 4.00276 10.0943 0
501 1 4.4477 11.1134 0
502 1 5.09559 10.1292 0
504 1 6.44343 10.0747 0
506 1 7.70982 9.96394 0
507 1 8.25475 10.8325 0
508 1 8.80928 9.85251 0
510 1 10.1037 9.98795 0
509 1 9.36452 11.1254 0
512 1 11.1217 10.0048 0
513 1 11.7824 10.8779 0
514 1 12.3108 9.97926 0
516 1 13.3272 9.91995 0
515 1 12.8358 10.949 0
517 1 13.8931 10.883 0
518 1 14.7351 9.88828 0
519 1 15.3433 10.9252 0
520 1 15.8562 9.85909 0
522 1 17.3975 9.53628 0
521 1 16.7454 10.6587 0
523 1 17.8773 10.6707 0
524 1 18.4826 9.66686 0
525 1 18.9472 10.7974 0
526 1 19.5399 9.61256 0
528 1 20.7374 9.74222 0
527 1 20.0891 10.6176 0
530 1 22.0424 9.52265 0
529 1 21.5343 10.6068 0
531 1 22.637 10.4511 0
532 1 23.2123 9.39521 0
533 1 23.7365 10.391 0
535 1 24.9634 10.4233 0
537 1 26.2823 10.2837 0
538 1 26.8899 9.37897 0
539 1 27.7271 10.3892 0
541 1 28.839 10.2825 0
543 1 29.8403 10.3786 0
546 1 31.3333 9.57847 0
545 1 30.9337 10.5703 0
547 1 31.9987 10.7211 0
548 1 32.8635 10.1051 0
549 1 33.4765 10.9898 0
550 1 34.1939 10.1773 0
484 1 35.3984 10.3332 0
555 1 -4.40956 11.564 0
554 1 -5.32429 12.3376 0
553 1 -5.77328 11.3136 0
556 1 -3.6852 12.7003 0
557 1 -3.07874 11.5182 0
558 1 -2.58879 12.8179 0
559 1 -2.07188 11.8707 0
561 1 -0.936794 11.894 0
560 1 -1.48538 12.9702 0
493 1 -0.142638 11.2589 0
562 1 -0.319011 12.8732 0
563 1 0.56292 12.1668 0
497 1 2.24628 11.2976 0
565 1 1.69853 12.1382 0
567 1 2.85555 12.3353 0
499 1 3.39459 11.2907 0
569 1 4.08093 12.168 0
503 1 5.86375 11.3394 0
571 1 5.25989 12.2587 0
573 1 6.43395 12.2859 0
505 1 7.06365 11.2438 0
575 1 7.5855 12.2626 0
577 1 8.59048 12.0066 0
511 1 10.4521 11.1994 0
579 1 10.049 12.1357 0
581 1 11.2616 11.9315 0
583 1 12.3205 11.9553 0
585 1 13.5097 12.0511 0
587 1 14.5722 11.6508 0
588 1 15.1362 12.7299 0
589 1 16.0176 11.7264 0
591 1 17.3694 11.5962 0
590 1 16.6915 12.7282 0
592 1 17.8582 12.7547 0
593 1 18.4102 11.7823 0
594 1 18.9528 12.7124 0
595 1 19.5991 11.7357 0
596 1 20.0274 12.7832 0
597 1 20.6999 11.6754 0
598 1 21.179 12.6938 0
599 1 21.882 11.6629 0
600 1 22.628 12.542 0
601 1 23.1064 11.4336 0
603 1 24.4009 11.406 0
602 1 23.9447 12.4862 0
604 1 25.0637 12.2105 0
605 1 25.8633 11.2609 0
606 1 26.1678 12.3017 0
607 1 26.9944 11.2406 0
609 1 28.2799 11.2821 0
610 1 28.4701 12.4385 0
608 1 27.3489 12.3036 0
611 1 29.2585 11.7296 0
612 1 29.9127 12.6752 0
613 1 30.3265 11.4269 0
615 1 31.3705 11.7588 0
614 1 30.976 12.7482 0
616 1 32.0717 12.7414 0
617 1 32.7215 11.6945 0
619 1 33.7764 12.0016 0
618 1 33.3246 12.9128 0
551 1 34.5924 11.3895 0
621 1 35.3144 12.1497 0
620 1 34.3156 12.9382 0
624 1 -4.33623 13.5921 0
623 1 -4.96468 14.4526 0
626 1 -3.24277 13.6494 0
627 1 -2.80312 14.6277 0
625 1 -3.84477 14.5826 0
628 1 -2.14705 13.8413 0
630 1 -0.901932 14.1039 0
564 1 0.974405 13.2769 0
632 1 0.209067 14.0551 0
566 1 2.08794 13.2751 0
634 1 1.59269 14.484 0
636 1 2.79785 14.2574 0
568 1 3.56236 13.3095 0
570 1 4.56627 13.1678 0
638 1 4.05314 14.3424 0
640 1 5.21998 14.2913 0
572 1 5.75817 13.4017 0
642 1 6.4271 14.4075 0
576 1 7.92241 13.2876 0
574 1 6.87903 13.2789 0
644 1 7.47291 14.2903 0
578 1 9.50203 13.1606 0
646 1 8.83103 14.1545 0
648 1 9.93377 14.145 0
580 1 10.6157 13.1661 0
582 1 11.7096 13.1229 0
650 1 11.1305 14.3167 0
652 1 12.1782 14.1818 0
584 1 12.7538 13.0956 0
586 1 13.9576 13.1098 0
654 1 13.3467 14.1369 0
656 1 14.5194 13.9868 0
658 1 15.9131 13.6492 0
660 1 17.2471 13.6647 0
661 1 17.6163 14.7416 0
659 1 16.1937 14.7396 0
662 1 18.4285 13.6317 0
663 1 19.0511 14.665 0
664 1 19.5608 13.7126 0
666 1 20.7746 13.7511 0
665 1 20.185 14.7303 0
667 1 21.4206 14.6819 0
668 1 22.0829 13.6201 0
669 1 22.5272 14.6175 0
670 1 23.2862 13.5307 0
672 1 24.6234 13.3814 0
671 1 23.874 14.6064 0
674 1 25.6613 13.1568 0
676 1 26.7403 13.485 0
673 1 25.0323 14.4628 0
675 1 26.1477 14.6512 0
678 1 27.8074 13.5917 0
677 1 27.3257 14.6616 0
679 1 28.4274 14.5376 0
680 1 29.0141 13.4848 0
681 1 29.6665 14.6018 0
682 1 30.5346 13.8367 0
684 1 31.6202 13.6603 0
686 1 32.7652 13.9098 0
688 1 34.1135 13.9613 0
622 1 35.7382 13.198 0
690 1 35.6886 14.3388 0
693 1 -4.51522 15.6619 0
692 1 -5.18528 16.5733 0
691 1 -5.61538 15.4577 0
695 1 -3.51431 15.7505 0
697 1 -2.2966 15.851 0
629 1 -1.65114 14.8664 0
699 1 -1.08082 15.9162 0
631 1 -0.419616 15.1263 0
633 1 0.719096 15.1529 0
701 1 0.466337 16.2519 0
703 1 1.51415 15.9569 0
635 1 2.26369 15.2632 0
705 1 2.6962 16.3103 0
637 1 3.51958 15.3136 0
639 1 4.77438 15.2508 0
707 1 4.03545 16.3561 0
709 1 5.28008 16.4464 0
641 1 5.90305 15.3868 0
711 1 6.48619 16.3561 0
643 1 7.08184 15.3605 0
645 1 8.17894 15.3419 0
713 1 7.72662 16.3917 0
715 1 8.7308 16.6032 0
647 1 9.25695 15.2559 0
717 1 9.78793 16.2386 0
649 1 10.4896 15.2035 0
651 1 11.7071 15.2889 0
719 1 10.9758 16.2249 0
653 1 12.8638 15.0845 0
655 1 14.0275 15.0282 0
721 1 12.3899 16.2213 0
723 1 13.4442 16.0876 0
657 1 15.1863 15.1043 0
725 1 14.6213 16.0315 0
727 1 15.7952 16.0085 0
729 1 17.0584 15.8098 0
731 1 18.1463 15.8997 0
732 1 18.8413 16.6101 0
733 1 19.3553 15.6012 0
735 1 20.7363 15.6363 0
734 1 20.1389 16.6187 0
737 1 21.9834 15.6411 0
739 1 23.1531 15.536 0
741 1 24.3041 15.5631 0
740 1 23.6235 16.5303 0
742 1 24.8132 16.5274 0
743 1 25.3996 15.4169 0
745 1 26.7956 15.7564 0
747 1 28.0001 15.8025 0
749 1 29.2116 15.6086 0
751 1 30.255 15.7447 0
683 1 31.0623 14.8235 0
753 1 31.6705 15.7487 0
685 1 32.2465 14.8565 0
687 1 33.3203 14.8407 0
755 1 32.8432 15.7859 0
757 1 34.1793 15.9522 0
689 1 35.1696 15.2619 0
759 1 35.3759 16.3389 0
762 1 -4.94178 17.6249 0
694 1 -4.03676 16.6757 0
696 1 -2.96694 16.6854 0
764 1 -3.54466 17.7397 0
766 1 -2.49575 17.7368 0
698 1 -1.64494 16.8027 0
700 1 -0.618181 17.2098 0
768 1 -1.48086 17.9743 0
702 1 0.822303 17.3187 0
770 1 -0.085792 18.2725 0
772 1 1.18143 18.381 0
704 1 2.00213 17.4064 0
706 1 3.16006 17.4547 0
708 1 4.32445 17.3879 0
778 1 5.32517 18.2463 0
710 1 5.91416 17.3086 0
712 1 7.00961 17.5521 0
714 1 8.04404 17.4923 0
716 1 9.30903 17.5725 0
786 1 10.2012 18.2384 0
718 1 10.3256 17.1417 0
720 1 11.7293 17.1449 0
788 1 11.4049 18.2248 0
790 1 12.5725 18.2603 0
722 1 12.9467 17.1446 0
792 1 13.6885 18.1809 0
724 1 14.0743 17.1018 0
726 1 15.1216 16.978 0
794 1 14.831 17.9649 0
796 1 15.8951 18.0029 0
728 1 16.5454 16.8023 0
798 1 17.2586 17.7917 0
730 1 17.6691 16.8643 0
800 1 18.4126 17.7406 0
802 1 19.5854 17.6561 0
804 1 20.8226 17.8464 0
736 1 21.3474 16.7685 0
738 1 22.4239 16.7118 0
806 1 22.0285 17.7285 0
808 1 23.0913 17.5989 0
810 1 24.2213 17.4862 0
744 1 25.8873 16.6517 0
812 1 25.4759 17.6418 0
746 1 27.4409 16.7544 0
814 1 26.8259 17.6096 0
816 1 28.1808 17.8075 0
748 1 28.6741 16.8419 0
750 1 29.9911 16.7097 0
818 1 29.3323 17.9763 0
820 1 30.3902 17.7987 0
752 1 31.1277 16.8033 0
822 1 31.5562 17.8157 0
754 1 32.3008 16.8692 0
756 1 33.486 16.929 0
826 1 33.9595 18.1684 0
824 1 32.9013 17.9934 0
760 1 35.7336 17.4056 0
758 1 34.5846 17.2854 0
828 1 35.0104 18.3088 0
761 1 -5.48337 18.5842 0
831 1 -4.92563 19.5537 0
763 1 -4.26209 18.5867 0
765 1 -3.04952 18.78 0
833 1 -3.77473 19.5738 0
835 1 -2.67931 19.7811 0
767 1 -1.36685 19.0411 0
769 1 -0.223568 19.3162 0
771 1 0.854485 19.5527 0
774 1 2.53832 18.4578 0
773 1 2.04356 19.6735 0
775 1 3.17856 19.5616 0
776 1 3.76768 18.4343 0
777 1 4.53144 19.3418 0
780 1 6.38255 18.6026 0
779 1 5.70382 19.5213 0
782 1 7.44198 18.4671 0
784 1 8.56257 18.513 0
781 1 6.89286 19.544 0
783 1 7.95562 19.4266 0
785 1 8.96093 19.5245 0
787 1 10.7946 19.2061 0
789 1 11.783 19.4405 0
791 1 13.071 19.4912 0
793 1 14.2688 19.3181 0
795 1 15.5821 19.0066 0
863 1 14.9693 20.2447 0
797 1 16.7415 18.909 0
865 1 16.0216 20.0266 0
867 1 17.3057 19.8559 0
799 1 17.9705 18.8457 0
801 1 19.0102 18.6242 0
869 1 18.5069 19.9394 0
803 1 20.1734 18.6867 0
871 1 19.8261 19.7953 0
873 1 20.9852 19.8719 0
805 1 21.4851 18.7829 0
807 1 22.6479 18.6928 0
875 1 22.1403 19.609 0
809 1 23.8363 18.5187 0
877 1 23.282 19.5016 0
811 1 24.9096 18.6091 0
879 1 24.6845 19.5547 0
813 1 26.259 18.5085 0
881 1 25.8156 19.6316 0
815 1 27.3888 18.5119 0
883 1 26.9585 19.4456 0
885 1 27.9816 19.8639 0
817 1 28.6642 18.7933 0
819 1 30.1313 18.8575 0
887 1 29.3518 19.8986 0
889 1 30.4103 20.0424 0
821 1 31.1668 19.1047 0
891 1 31.7921 20.0121 0
823 1 32.3073 19.1308 0
825 1 33.5646 19.172 0
829 1 35.6822 19.5438 0
827 1 34.6215 19.4094 0
830 1 -5.62823 20.5976 0
832 1 -4.46045 20.5221 0
900 1 -4.90454 21.7044 0
834 1 -3.35867 20.8922 0
902 1 -3.84644 21.8743 0
837 1 -1.05151 20.2932 0
836 1 -2.01993 20.6915 0
838 1 -0.560696 21.2126 0
904 1 -1.91557 21.7208 0
839 1 0.295471 20.5689 0
840 1 0.986262 21.6081 0
841 1 1.46004 20.5593 0
843 1 2.72755 20.4806 0
842 1 2.20201 21.4182 0
845 1 3.95231 20.5963 0
844 1 3.39019 21.4901 0
846 1 4.67595 21.4351 0
847 1 5.2023 20.5462 0
849 1 6.249 20.6554 0
848 1 5.81286 21.5618 0
851 1 7.30101 20.5941 0
853 1 8.4808 20.4256 0
850 1 6.95597 21.5966 0
852 1 8.0384 21.3892 0
855 1 9.71427 20.3548 0
854 1 9.17085 21.3093 0
856 1 10.3141 21.3209 0
857 1 11.0449 20.3663 0
859 1 12.2692 20.4667 0
858 1 11.5279 21.4542 0
861 1 13.7922 20.3862 0
860 1 13.1925 21.4729 0
862 1 14.4261 21.4078 0
864 1 15.7466 21.3343 0
866 1 16.9109 21.1964 0
868 1 18.0171 21.1031 0
870 1 19.16 20.7352 0
938 1 18.6386 21.9491 0
872 1 20.1924 20.7799 0
940 1 19.7067 21.8008 0
942 1 20.9677 21.8617 0
874 1 21.4918 20.768 0
876 1 22.797 20.6685 0
944 1 22.2627 21.6574 0
878 1 23.8966 20.4768 0
880 1 24.9645 20.6674 0
946 1 23.569 21.4921 0
948 1 24.5897 21.7773 0
882 1 26.1171 20.7687 0
950 1 25.7077 21.7454 0
884 1 27.4121 20.9151 0
952 1 26.8838 21.8448 0
954 1 28.2324 22.0149 0
886 1 28.6959 20.8356 0
888 1 29.8268 20.952 0
956 1 29.3358 21.9492 0
890 1 31.135 21.0203 0
958 1 30.4569 21.8942 0
892 1 32.2735 21.401 0
893 1 32.8317 20.2474 0
894 1 33.4548 21.2014 0
895 1 34.0182 20.2709 0
898 1 35.6508 21.7343 0
897 1 35.0982 20.4578 0
896 1 34.535 21.3124 0
899 1 -5.39772 22.8073 0
901 1 -4.04714 22.9226 0
903 1 -2.83231 23.1755 0
906 1 -0.940921 22.1848 0
905 1 -1.52801 23.3387 0
908 1 0.141249 22.4229 0
907 1 -0.388758 23.5063 0
909 1 0.725143 23.5356 0
912 1 2.58348 22.4164 0
910 1 1.49653 22.6846 0
911 1 2.0463 23.6705 0
913 1 3.09051 23.4833 0
914 1 3.7586 22.4271 0
915 1 4.40529 23.6414 0
916 1 4.98049 22.6034 0
918 1 6.15969 22.5485 0
917 1 5.60304 23.5431 0
919 1 6.79159 23.636 0
920 1 7.31484 22.6538 0
921 1 8.28388 23.2489 0
924 1 9.85242 22.3317 0
922 1 8.7582 22.2522 0
923 1 9.55159 23.4392 0
926 1 11.0021 22.3714 0
925 1 10.6414 23.6101 0
927 1 11.8469 23.3899 0
928 1 12.58 22.4132 0
929 1 13.0601 23.5315 0
930 1 14.0791 22.5563 0
932 1 15.1921 22.2876 0
931 1 14.5588 23.4872 0
933 1 15.7648 23.1852 0
934 1 16.1981 22.2685 0
935 1 16.8158 23.3244 0
936 1 17.333 22.1808 0
937 1 17.9762 23.0909 0
939 1 19.1161 23.0738 0
941 1 20.3126 22.7334 0
943 1 21.7246 22.8795 0
945 1 22.8059 22.6869 0
947 1 23.924 22.7392 0
1017 1 24.484 23.681 0
949 1 25.0708 22.7883 0
951 1 26.5515 22.855 0
1019 1 25.8188 23.8488 0
953 1 27.664 22.8968 0
955 1 28.735 22.9769 0
957 1 30.1444 22.9758 0
960 1 31.5828 22.1884 0
959 1 31.2428 23.1667 0
962 1 33.0172 22.2092 0
961 1 32.3251 23.0244 0
963 1 33.4418 23.3622 0
964 1 34.2715 22.4997 0
966 1 35.3333 22.6998 0
965 1 34.7216 23.6856 0
969 1 -4.54948 23.8795 0
968 1 -5.16331 24.9136 0
970 1 -3.81811 25.0503 0
971 1 -3.50145 23.999 0
972 1 -2.5455 25.6167 0
973 1 -2.27322 24.3623 0
975 1 -0.905653 24.3958 0
974 1 -1.27129 25.6074 0
977 1 0.150777 24.5248 0
978 1 0.850954 25.599 0
979 1 1.37067 24.5156 0
981 1 2.86317 24.5594 0
980 1 1.98479 25.6363 0
982 1 3.14958 25.6048 0
983 1 3.93476 24.5692 0
984 1 4.36302 25.6337 0
985 1 5.08257 24.6106 0
987 1 6.44137 24.7492 0
986 1 5.7615 25.574 0
989 1 7.68727 24.431 0
988 1 7.23535 25.5893 0
990 1 8.51598 25.3168 0
991 1 8.93676 24.3478 0
993 1 10.1504 24.4972 0
992 1 9.71607 25.5646 0
995 1 11.2726 24.5643 0
994 1 10.7228 25.6415 0
996 1 11.9928 25.619 0
997 1 12.3939 24.5223 0
998 1 13.0886 25.3745 0
999 1 13.8863 24.3006 0
1001 1 15.0492 24.4083 0
1000 1 14.3581 25.4391 0
1002 1 15.4435 25.5022 0
1003 1 16.199 24.2259 0
1005 1 17.5608 24.4296 0
1004 1 16.443 25.3171 0
1007 1 18.8143 24.1592 0
1008 1 19.3709 25.202 0
1009 1 19.9761 24.1286 0
1011 1 21.079 23.9846 0
1010 1 20.6064 25.1067 0
1013 1 22.1502 23.8921 0
1012 1 21.7353 24.7969 0
1014 1 22.8549 24.9173 0
1015 1 23.3612 23.8682 0
1016 1 24.0005 24.7469 0
1018 1 25.1695 24.6693 0
1020 1 26.3155 24.8046 0
1021 1 26.9142 23.8726 0
1023 1 28.3103 23.9963 0
1022 1 27.6474 24.9693 0
1025 1 29.3648 24.1935 0
1024 1 28.6858 25.207 0
1026 1 29.7655 25.2564 0
1027 1 30.568 24.1037 0
1029 1 31.8005 24.268 0
1028 1 31.0643 25.1963 0
1030 1 32.243 25.3784 0
1031 1 32.9874 24.4051 0
1032 1 33.3585 25.457 0
967 1 35.8097 23.9552 0
1033 1 34.0877 24.6376 0
1035 1 35.1335 25.0231 0
1038 1 -4.66372 25.9634 0
1037 1 -5.43866 26.8391 0
1036 1 -5.85085 25.8103 0
1039 1 -4.38189 27.166 0
1040 1 -3.61418 26.3621 0
1042 1 -2.44886 26.7491 0
1044 1 -1.00147 26.6455 0
976 1 -0.325735 25.8734 0
1046 1 0.310846 26.6872 0
1050 1 2.54073 26.6494 0
1048 1 1.44697 26.6701 0
1052 1 3.82179 26.5328 0
1054 1 5.15391 26.5234 0
1056 1 6.2776 26.6415 0
1058 1 7.70352 26.7845 0
1060 1 9.00609 26.5157 0
1062 1 10.2039 26.6579 0
1064 1 11.3191 26.5423 0
1066 1 12.543 26.5126 0
1067 1 13.2556 27.4427 0
1068 1 13.6124 26.4815 0
1070 1 14.7622 26.6389 0
1006 1 17.4952 25.7527 0
1072 1 16.0149 26.5724 0
1074 1 17.0245 26.7145 0
1076 1 18.1657 26.676 0
1077 1 19.0296 27.3121 0
1078 1 19.1663 26.2171 0
1080 1 20.6787 26.3381 0
1079 1 20.1047 27.2975 0
1082 1 22.1135 25.8072 0
1083 1 22.9979 26.9963 0
1081 1 21.7783 26.9289 0
1084 1 23.4139 25.9372 0
1086 1 24.5503 25.765 0
1085 1 24.0775 26.8192 0
1088 1 25.679 25.7254 0
1089 1 26.212 26.7376 0
1087 1 25.1746 26.8307 0
1092 1 28.1245 26.1071 0
1090 1 26.9029 25.8405 0
1091 1 27.4856 27.0142 0
1093 1 28.6232 27.1265 0
1094 1 29.1817 26.1923 0
1095 1 29.7931 27.2351 0
1096 1 30.3875 26.2394 0
1098 1 31.488 26.2043 0
1097 1 31.0662 27.2433 0
1099 1 32.127 27.3683 0
1100 1 32.7938 26.5361 0
1102 1 34.0153 26.8055 0
1034 1 34.3753 25.7379 0
1104 1 35.1735 26.5513 0
1107 1 -4.68066 28.2067 0
1106 1 -5.36497 29.2034 0
1105 1 -5.8833 27.7854 0
1041 1 -3.01428 27.756 0
1109 1 -3.41951 28.7868 0
1111 1 -2.29859 28.8306 0
1043 1 -1.70659 27.7121 0
1045 1 -0.572071 27.6509 0
1113 1 -1.10223 28.6626 0
1047 1 0.767393 27.682 0
1115 1 -0.0558628 28.5984 0
1117 1 1.27235 28.6949 0
1049 1 2.09695 27.9218 0
1119 1 2.66686 29.1414 0
1051 1 3.24697 27.64 0
1053 1 4.49196 27.6793 0
1121 1 3.82127 28.7337 0
1123 1 4.85156 29.0395 0
1055 1 5.47873 28.0544 0
1125 1 6.29938 28.6488 0
1057 1 6.89703 27.5348 0
1059 1 7.93574 27.84 0
1127 1 7.3796 28.8708 0
1129 1 8.60464 28.6088 0
1061 1 9.185 27.6001 0
1131 1 9.73128 28.5223 0
1063 1 10.4775 27.7121 0
1065 1 12.161 27.5035 0
1133 1 11.426 28.2661 0
1135 1 12.4755 28.5825 0
1137 1 13.54 28.5382 0
1069 1 14.3166 27.5729 0
1071 1 15.4674 27.4939 0
1139 1 14.749 28.6436 0
1141 1 15.8468 28.6987 0
1075 1 17.6148 27.6344 0
1073 1 16.4978 27.6637 0
1143 1 17.0264 28.5557 0
1145 1 18.3563 28.4553 0
1147 1 19.8156 28.3802 0
1149 1 21.2266 27.9264 0
1148 1 20.4188 29.2858 0
1151 1 22.2999 27.8986 0
1150 1 21.6783 29.0689 0
1152 1 22.8273 28.8397 0
1153 1 23.4894 27.9591 0
1155 1 24.6372 27.8541 0
1154 1 24.0598 28.8344 0
1157 1 25.677 27.834 0
1156 1 25.1304 28.8707 0
1158 1 26.2202 28.886 0
1159 1 26.9301 27.9695 0
1161 1 28.0327 28.1721 0
1160 1 27.2776 28.9672 0
1163 1 29.2068 28.1408 0
1164 1 30.0326 29.1674 0
1165 1 30.4079 28.1373 0
1162 1 28.6901 29.2201 0
1167 1 31.8411 28.4602 0
1101 1 33.2758 27.5796 0
1169 1 32.9399 28.5675 0
1171 1 34.0636 28.582 0
1103 1 34.7476 27.6059 0
1173 1 35.323 28.8283 0
1108 1 -4.38252 29.5373 0
1175 1 -4.56655 30.6195 0
1174 1 -5.62958 30.3163 0
1110 1 -2.95216 29.7354 0
1176 1 -3.51359 30.6281 0
1177 1 -2.3823 30.8676 0
1112 1 -1.77589 29.728 0
1114 1 -0.664301 29.8495 0
1178 1 -1.27523 30.9152 0
1116 1 0.574198 29.5738 0
1179 1 -0.129809 30.8021 0
1180 1 1.19829 30.7306 0
1118 1 1.69905 29.7307 0
1181 1 2.42191 30.6862 0
1120 1 3.48149 29.8787 0
1122 1 4.53831 30.0478 0
1182 1 3.81352 30.9542 0
1183 1 4.86641 31.0926 0
1124 1 5.78218 29.636 0
1184 1 6.20032 30.6987 0
1126 1 6.87939 29.9127 0
1128 1 8.09034 29.6895 0
1185 1 7.51508 30.8239 0
1130 1 9.21952 29.561 0
1132 1 10.2989 29.6158 0
1186 1 8.66131 30.6246 0
1187 1 9.86802 30.6331 0
1134 1 11.4423 29.4452 0
1188 1 11.0688 30.5905 0
1189 1 12.1538 30.3503 0
1136 1 12.9199 29.6216 0
1190 1 13.2978 30.5725 0
1138 1 14.1799 29.651 0
1140 1 15.5514 29.789 0
1191 1 14.5205 30.6614 0
1192 1 15.8849 30.8628 0
1142 1 16.5542 29.5163 0
1193 1 16.9829 30.6015 0
1144 1 17.7848 29.4104 0
1194 1 18.6238 30.2411 0
1146 1 19.2885 29.3345 0
1196 1 21.1647 30.2018 0
1195 1 19.9342 30.3118 0
45 1 21.6968 31.0942 0
1197 1 22.2695 29.9879 0
49 1 23.9081 30.6645 0
51 1 24.9204 31.0059 0
1198 1 23.305 29.7903 0
1199 1 24.6484 29.8654 0
53 1 26.3264 30.8866 0
1200 1 25.6579 30.11 0
1201 1 26.7951 29.8993 0
55 1 27.475 31.0166 0
1202 1 27.984 30.1416 0
57 1 28.8209 31.017 0
1203 1 29.4259 30.1931 0
1204 1 30.6855 30.2346 0
1205 1 32.1631 30.5828 0
1166 1 31.2514 29.3997 0
1206 1 33.2283 30.8815 0
1168 1 32.378 29.4668 0
1170 1 33.5371 29.6148 0
1207 1 34.2911 30.9347 0
1172 1 35.1439 30.1085 0
