ITEM: TIMESTEP
40000
ITEM: NUMBER OF ATOMS
108000
ITEM: BOX BOUNDS pp pp pp
-1.4406438247965831e+01 1.0033239168796555e+02
-1.4406438247965831e+01 1.0033239168796555e+02
-1.4406438247965831e+01 1.0033239168796555e+02
ITEM: ATOMS id type x y z type
968 1 -10.5873 -10.4901 -10.4439 1
10805 1 -13.5215 -7.18177 34.7385 1
71 1 -9.4382 -12.5397 -12.0349 1
12779 1 42.8422 -12.1033 38.3901 1
26952 1 -7.07022 41.1219 -13.5783 1
13 1 -7.20536 -12.0713 -11.5025 1
6 1 -4.06443 -13.0008 -13.5632 1
26227 1 -2.36689 -11.4382 -12.0939 1
26287 1 -4.79714 -11.1372 -12.2868 1
30497 1 -3.08569 -13.6998 -10.8447 1
1394 1 1.52774 17.9898 -14.2188 1
26238 1 0.319492 -12.1323 -12.1413 1
30646 1 29.8005 42.6056 -1.0167 1
53958 1 1.46435 -13.2322 -13.9124 1
28699 1 3.28873 -13.5394 -12.5104 1
11813 1 42.6876 -4.59288 32.0129 1
27865 1 2.34948 -11.1415 -10.916 1
1885 1 5.68487 -14.1024 -9.35031 1
25277 1 7.39854 -12.9247 -11.2519 1
8989 1 23.4025 42.8846 16.1937 1
3003 1 -12.8015 3.46641 0.444796 1
15126 1 -8.86473 42.2004 42.0927 1
26187 1 10.1922 -13.5563 -12.1081 1
27872 1 11.9113 -11.8109 -11.9778 1
988 1 10.9977 -9.63313 -10.681 1
926 1 11.5392 -9.06738 -12.9326 1
25721 1 27.0601 13.8702 -14.0161 1
38758 1 42.7922 42.761 35.8097 1
1055 1 16.7318 -13.3241 -9.8047 1
26248 1 18.3158 -12.4195 -12.4352 1
94 1 19.3489 -12.9685 -9.04596 1
13373 1 40.602 29.5461 42.8902 1
7263 1 -12.7407 -0.110057 22.394 1
1797 1 40.1703 31.0478 -14.457 1
999 1 21.4785 -11.0449 -11.4363 1
26901 1 1.83281 34.1503 -12.9737 1
1955 1 22.8456 -13.4865 -11.8337 1
80762 1 42.9474 31.4048 -13.8039 1
90730 1 42.58 -14.2496 24.9027 1
725 1 -14.1268 28.3747 -13.1745 1
53920 1 28.5179 -13.6643 -11.1398 1
65997 1 -13.6022 1.24605 40.9165 1
26152 1 29.981 -12.099 -13.5159 1
38582 1 -12.8558 -14.0043 35.3866 1
4600 1 15.6579 -13.9531 3.09203 1
26272 1 32.844 -12.6092 -12.4489 1
937 1 20.4076 -13.3791 -10.9394 1
26211 1 32.7119 -14.2941 -10.4585 1
114 1 38.5326 -11.4151 -11.991 1
25290 1 20.2861 -13.5534 -13.2025 1
26391 1 40.6116 -10.7377 -13.4816 1
1013 1 39.2738 -13.707 -10.5726 1
92702 1 42.7906 39.7632 34.0838 1
53935 1 38.6413 -13.5157 -13.9646 1
13490 1 39.0717 41.2124 40.4844 1
54121 1 41.0528 -12.5398 -11.5893 1
57061 1 42.8767 -1.46923 5.22314 1
26487 1 18.1996 9.11042 -13.2108 1
35887 1 -11.6141 -13.739 15.5902 1
64 1 -11.1074 -8.37284 -12.0572 1
1023 1 -13.4677 -9.05994 -11.4244 1
1921 1 -11.679 -10.5288 -12.8692 1
63601 1 43.0562 19.8226 17.8822 1
127 1 -8.78709 -10.6373 -13.7005 1
1574 1 -9.65918 29.84 -14.4302 1
55019 1 -6.48586 -8.95537 -11.8993 1
26170 1 -3.09309 -7.07738 -10.6748 1
1873 1 -6.08035 -10.3987 -9.07664 1
67 1 -8.28512 -9.9112 -11.0146 1
27854 1 -4.94442 -7.84303 -13.2762 1
26234 1 -3.83329 -9.48277 -10.8421 1
1033 1 -1.23848 -9.32541 -9.94488 1
3631 1 13.4575 -13.1271 -0.801296 1
25276 1 -2.37376 -9.24022 -12.8716 1
918 1 0.333053 -9.5766 -11.9029 1
26229 1 0.582924 -7.53004 -13.554 1
26180 1 3.27145 -8.70373 -11.5063 1
26120 1 5.20063 -11.0811 -11.0441 1
265 1 2.81838 -7.81849 -14.2131 1
18 1 3.46836 -10.8465 -12.9237 1
26122 1 7.27262 -9.19068 -10.6193 1
26251 1 8.75805 -9.23029 -14.0593 1
26301 1 5.31943 -7.59664 -11.2638 1
26117 1 7.48807 -7.46979 -12.3405 1
86 1 9.20614 -11.3069 -11.267 1
53962 1 10.2939 -6.98359 -12.9182 1
26241 1 10.2287 -11.1563 -13.8731 1
1947 1 9.34387 -8.85543 -11.764 1
83 1 14.4381 -7.53986 -12.0373 1
26309 1 17.8096 -6.90755 -9.4687 1
10145 1 -13.7895 -2.34252 32.4942 1
1830 1 11.9798 -6.78215 -11.1056 1
931 1 15.7771 -10.3885 -12.3258 1
26204 1 17.0717 -9.7951 -13.9259 1
220 1 16.6616 -7.57443 -13.3322 1
26196 1 18.9126 -8.19696 -14.2359 1
996 1 17.9105 -9.12028 -11.5662 1
994 1 21.1973 -8.92438 -12.8312 1
1061 1 20.4527 -6.48465 -12.4443 1
34155 1 -1.1746 -13.8552 19.1307 1
55625 1 41.4048 38.6529 -10.8861 1
1063 1 23.505 -8.39057 -12.2492 1
1002 1 23.9437 -11.4547 -12.9564 1
26195 1 21.5339 -11.3907 -13.8103 1
219 1 22.4184 -7.01396 -14.0135 1
26325 1 29.5731 -7.00677 -11.5647 1
10860 1 42.7288 -0.910335 37.4601 1
53979 1 31.4242 -8.42627 -11.3848 1
162 1 29.9261 -7.63899 -13.9134 1
231 1 30.4313 -10.3201 -11.844 1
5104 1 -13.5154 28.564 2.09382 1
579 1 21.7565 19.2876 -13.8572 1
26276 1 36.1423 -10.0839 -11.8506 1
1133 1 32.4623 -10.0632 -13.7548 1
54063 1 38.5423 -9.78844 -14.1156 1
120 1 37.0738 -6.02843 -10.9705 1
28708 1 13.2751 -13.2195 -7.59395 1
26277 1 42.1057 -8.54714 -11.8672 1
179 1 39.8835 -8.06731 -12.915 1
54187 1 41.9023 -6.73253 -9.62239 1
54181 1 42.4148 -7.04846 -13.4886 1
2586 1 -3.33357 42.5251 -6.89659 1
124 1 -13.5941 -6.34124 -11.2487 1
55077 1 -12.5739 -4.87438 -12.9315 1
2047 1 -11.3001 -3.22823 -11.1987 1
402 1 21.2799 7.67808 -12.3898 1
243 1 -10.8197 -6.10029 -11.6894 1
67379 1 -14.0175 26.6187 37.4041 1
54178 1 -10.639 -2.63919 -8.9082 1
26343 1 -8.98688 -7.93078 -11.8249 1
26224 1 -7.13105 -6.54576 -12.8709 1
55199 1 -6.83428 -3.06339 -11.6051 1
55200 1 -3.68566 -4.14861 -10.5309 1
1533 1 27.1848 31.4449 -14.0442 1
1082 1 -4.03356 -5.97979 -12.3475 1
132 1 -1.66314 -5.38038 -10.2804 1
26239 1 -0.92076 -7.45989 -11.3454 1
1877 1 -0.722229 -5.49708 -12.4566 1
10840 1 18.484 -12.8904 36.7407 1
27900 1 40.8862 -13.7518 -5.60392 1
1101 1 1.35877 -7.2626 -11.4585 1
144 1 4.04222 -3.52521 -12.7172 1
1937 1 6.11788 -5.64522 -13.3412 1
141 1 3.48542 -5.91867 -12.3685 1
81 1 4.7726 -1.5192 -10.6787 1
152 1 6.26122 -5.40275 -11.1379 1
27223 1 31.5516 41.3309 -8.10775 1
25288 1 8.5159 -1.77694 -11.5507 1
31 1 14.4025 -14.3471 -9.18414 1
25348 1 11.5114 -4.99257 -9.71694 1
146 1 9.71823 -3.84575 -9.97057 1
2009 1 8.55331 -6.06907 -10.4789 1
1047 1 8.21598 -4.67424 -12.383 1
211 1 12.5389 -3.3679 -12.9878 1
986 1 13.8246 -5.06815 -11.7393 1
26254 1 16.3257 -5.37044 -13.3089 1
1056 1 14.0582 -5.77028 -9.50223 1
2010 1 16.1222 -5.03645 -10.8058 1
1181 1 17.8478 -6.57546 -11.715 1
54665 1 42.1182 24.7833 -8.30899 1
1117 1 19.4299 -4.02111 -12.8524 1
26441 1 21.4269 -2.63546 -11.149 1
283 1 23.1554 -5.68512 -12.1418 1
1062 1 20.3006 -2.26252 -13.9285 1
228 1 26.1768 -8.85859 -12.4015 1
1179 1 25.3547 -3.40475 -11.0016 1
2026 1 25.49 -6.50984 -11.7749 1
38706 1 -8.20552 42.4759 25.2418 1
1134 1 28.1569 -5.12152 -11.6626 1
3359 1 42.4661 27.1264 -6.77768 1
1182 1 31.3908 -5.57285 -11.5267 1
1126 1 33.6295 -6.21934 -12.8971 1
1127 1 28.1034 -6.52585 -9.83355 1
1069 1 31.5344 -3.23697 -11.9003 1
26212 1 37.3267 -13.6005 -11.9762 1
163 1 35.1901 -7.64157 -11.4796 1
1135 1 33.6355 -2.86733 -12.7537 1
1970 1 35.4391 -4.58524 -12.7867 1
11755 1 39.222 -13.4708 37.4558 1
178 1 38.6953 -5.55612 -13.2515 1
174 1 36.8354 -1.83799 -13.1946 1
1012 1 39.51 -7.07515 -10.6028 1
1072 1 37.4298 -3.87163 -12.0358 1
1253 1 41.7501 -4.76512 -11.5541 1
786 1 -13.1138 38.0844 -12.2472 1
5276 1 42.3583 30.1557 10.0927 1
3232 1 29.3925 19.5957 -13.0374 1
189 1 -11.7619 -0.123141 -12.1849 1
54240 1 -12.0981 2.22392 -13.2924 1
26346 1 -7.37131 -0.825469 -11.0208 1
1088 1 -9.89898 -0.824945 -10.6877 1
1147 1 -8.91641 -0.287636 -12.9022 1
26349 1 -10.4296 -2.12005 -13.0074 1
10041 1 10.0223 -13.2602 29.1625 1
134 1 -5.13382 -3.9198 -12.7439 1
26291 1 -5.03778 0.21947 -11.5209 1
25382 1 -3.39221 -2.44415 -12.2437 1
25388 1 -8.49095 -3.08243 -9.83659 1
261 1 2.25861 -2.63287 -11.7008 1
26235 1 -0.183617 -2.38843 -13.2783 1
72 1 0.0951234 -1.85263 -10.6077 1
1039 1 -2.45501 -0.277819 -10.4203 1
36866 1 15.6649 -13.9472 23.6632 1
78 1 3.91593 -4.47526 -10.6009 1
26305 1 0.938818 -0.139779 -12.8804 1
27879 1 28.9729 -13.4408 -5.7054 1
1105 1 3.67195 -0.172731 -12.6571 1
1168 1 4.94965 1.65535 -11.7338 1
1042 1 5.88871 2.91938 -9.98048 1
208 1 6.65269 -0.283955 -12.6981 1
24665 1 -3.85543 -0.521506 -13.9108 1
1049 1 8.22943 2.94419 -11.1703 1
26252 1 10.8134 -1.87993 -11.9726 1
26366 1 8.95281 0.503941 -11.7375 1
26310 1 14.5254 -2.52866 -12.0005 1
216 1 12.9293 -0.799402 -12.9283 1
1109 1 14.8316 -0.74481 -9.93495 1
26314 1 16.8758 -2.95894 -10.7854 1
206 1 11.5167 1.07345 -13.1711 1
2139 1 19.7461 0.64662 -10.0438 1
26316 1 17.2084 -3.58118 -8.50032 1
218 1 19.3169 -1.68662 -11.2534 1
1177 1 17.2902 -1.8042 -13.048 1
36163 1 30.2515 42.3476 32.2039 1
26395 1 23.6782 -2.0502 -10.8386 1
1248 1 21.2637 0.578862 -14.2024 1
26315 1 22.8832 -2.07966 -13.5188 1
1840 1 25.1516 -12.9717 -6.90663 1
221 1 25.6951 -0.363682 -10.6259 1
102 1 25.6686 -1.45511 -12.7395 1
1238 1 23.9981 -0.441604 -8.6325 1
62282 1 42.1727 -5.16047 19.0462 1
10878 1 -0.0135864 -14.2645 32.3587 1
292 1 29.7558 1.52791 -11.7786 1
2146 1 27.6402 -2.13815 -11.8043 1
2997 1 29.1733 -0.369386 -10.7955 1
222 1 29.4724 -1.84147 -13.7308 1
29710 1 -8.00028 42.8561 -5.76745 1
26274 1 34.1062 -0.417097 -11.9465 1
1197 1 35.345 -2.81535 -10.4412 1
26396 1 39.4881 -4.58411 -11.0428 1
1139 1 36.6411 -0.632407 -11.3304 1
26340 1 37.4101 -1.71899 -9.01472 1
909 1 -11.6415 -13.8341 -4.57248 1
54184 1 41.4988 -2.30313 -11.7121 1
25553 1 38.7482 -1.79031 -10.9852 1
55982 1 40.5894 1.5863 -10.1494 1
25498 1 42.4587 0.0889104 -11.0582 1
1992 1 -10.8394 1.39076 -10.8941 1
54234 1 -12.8083 3.40855 -9.89545 1
13500 1 41.3595 42.8942 42.168 1
1090 1 -13.6401 4.13701 -12.1993 1
26405 1 -9.57124 1.86934 -13.0681 1
1986 1 -6.4578 4.21711 -12.1283 1
58626 1 41.6656 -3.99419 5.46719 1
1148 1 -8.80072 1.08655 -10.4628 1
1100 1 -7.25745 1.6098 -12.452 1
136 1 -6.2499 2.52539 -10.4773 1
1083 1 -3.82112 3.52846 -10.9825 1
185 1 -6.62838 -11.9593 -13.8671 1
375 1 -2.57594 1.43453 -12.6065 1
1997 1 -0.20547 1.63703 -13.0684 1
251 1 -2.78361 3.89852 -13.0301 1
193 1 1.77172 1.6979 -11.4936 1
255 1 1.01339 3.67922 -13.5542 1
26445 1 26.2316 7.37267 -13.301 1
26360 1 3.80313 3.47869 -12.5655 1
26299 1 1.17585 3.4714 -10.3459 1
2819 1 30.2483 -14.0725 5.20266 1
2181 1 7.97604 4.74396 -13.1843 1
314 1 5.84406 5.14499 -13.1868 1
2062 1 3.56407 2.94849 -10.1411 1
27885 1 34.0662 -14.3801 -8.71452 1
1106 1 11.4152 5.37137 -12.6868 1
147 1 11.5241 3.16717 -11.3395 1
26307 1 13.791 1.67553 -12.0864 1
26552 1 9.66174 6.4084 -14.3636 1
26495 1 12.6758 3.36175 -13.6247 1
205 1 15.3751 3.18111 -13.2639 1
276 1 16.0733 0.558568 -12.4705 1
271 1 17.3949 -0.582983 -10.8192 1
334 1 18.1066 1.75646 -11.3351 1
3037 1 18.4433 4.80055 -13.9547 1
1167 1 19.3665 0.152904 -12.6109 1
1184 1 20.2697 3.53744 -11.9282 1
390 1 23.5215 1.84822 -9.95366 1
26388 1 21.8549 -0.0424431 -12.0972 1
343 1 24.076 3.1261 -11.9413 1
391 1 26.8194 2.85599 -12.91 1
234 1 28.0601 3.47555 -10.2356 1
341 1 27.5416 0.701922 -11.9721 1
289 1 25.9185 2.27427 -10.771 1
55981 1 29.1645 3.74515 -12.5465 1
2033 1 30.1462 2.68872 -9.71682 1
1130 1 31.7667 0.267405 -10.3029 1
295 1 31.6466 1.71479 -14.1583 1
417 1 32.7672 1.36349 -11.8948 1
235 1 34.2044 3.78308 -12.0076 1
359 1 38.8256 0.385123 -12.4088 1
54247 1 35.2944 1.67857 -11.2964 1
1260 1 38.7286 4.13634 -13.8459 1
1195 1 41.0524 1.54615 -12.2272 1
63552 1 42.7891 24.1333 25.725 1
54248 1 42.6534 3.33837 -10.997 1
7259 1 41.7222 -7.20852 20.3222 1
247 1 -11.7925 4.81911 -13.6472 1
26407 1 -12.0318 5.72333 -10.6162 1
700 1 19.6582 19.9497 -13.05 1
54235 1 -10.8937 3.73451 -11.504 1
3121 1 -9.73415 6.32584 -11.9783 1
26408 1 -10.864 8.34823 -9.96 1
311 1 -7.96043 4.63146 -10.3753 1
24666 1 -7.39695 6.39564 -12.7111 1
309 1 -4.44171 5.50772 -12.9848 1
374 1 -2.34256 6.34395 -12.9916 1
250 1 -3.2481 5.61353 -10.7645 1
2172 1 -4.53867 7.82698 -13.4624 1
25454 1 -0.476773 7.41887 -11.1448 1
440 1 -2.32124 9.12136 -12.5818 1
324 1 1.40886 9.30371 -11.022 1
264 1 3.51295 5.75688 -11.8613 1
317 1 2.87905 7.55362 -13.5177 1
14086 1 28.8766 23.4556 42.7955 1
371 1 4.27543 5.52881 -9.66717 1
326 1 7.171 9.21192 -10.9737 1
26483 1 6.53906 5.08525 -11.0719 1
385 1 7.8309 6.72679 -12.3277 1
36015 1 0.206829 42.4654 20.5508 1
397 1 12.8411 7.10224 -12.5442 1
1290 1 9.32126 5.47005 -11.1155 1
26547 1 10.0983 7.97312 -11.8956 1
35066 1 15.787 -12.3345 13.5788 1
1229 1 14.8042 5.75758 -12.7998 1
26609 1 11.7158 8.34892 -14.2102 1
79445 1 40.8115 -4.10738 -13.5347 1
26618 1 15.8464 8.53278 -13.6975 1
1288 1 15.0301 8.4779 -10.723 1
37963 1 19.7077 41.4268 32.2826 1
26426 1 17.1968 3.78348 -11.682 1
2132 1 15.7311 5.31846 -10.5819 1
288 1 19.2768 6.38117 -11.942 1
1286 1 16.7076 6.97809 -12.4012 1
55387 1 33.8185 17.5008 -14.1323 1
396 1 21.4134 5.24745 -13.5719 1
1237 1 23.1319 7.89542 -10.5619 1
26507 1 23.6898 6.66209 -13.1985 1
282 1 25.7186 7.15377 -10.8437 1
26387 1 23.7315 5.73172 -10.7242 1
1303 1 24.6852 6.01091 -7.4201 1
67255 1 -13.8825 23.5379 37.6624 1
409 1 25.5127 4.97037 -12.3984 1
26716 1 -6.3037 27.29 -14.1675 1
411 1 27.9061 5.97605 -10.913 1
26400 1 31.2191 3.34286 -11.6835 1
1191 1 28.6105 7.90915 -12.2637 1
1250 1 30.9377 8.48205 -12.8942 1
407 1 29.6057 7.39613 -9.72897 1
26392 1 32.5068 3.84948 -13.4109 1
2091 1 33.5808 5.89861 -11.5839 1
1377 1 36.4113 2.74492 -13.1211 1
1196 1 32.4726 4.84925 -9.78706 1
25620 1 33.1526 7.59503 -13.774 1
54243 1 38.0089 2.34515 -11.4193 1
1310 1 36.5765 6.87742 -10.3387 1
1372 1 36.3729 5.22498 -13.9372 1
2278 1 36.5151 4.31183 -11.4556 1
26580 1 39.3314 8.95794 -13.137 1
2279 1 41.4067 9.8613 -12.6013 1
80344 1 40.1655 6.0136 -12.7836 1
55202 1 39.5007 3.71556 -10.5937 1
55141 1 40.7193 3.90663 -12.7328 1
26535 1 -12.4685 10.759 -9.01574 1
2102 1 -11.5764 12.5686 -10.3303 1
26644 1 -10.3579 12.531 -13.5197 1
26461 1 -13.1349 8.68183 -12.2952 1
1146 1 -11.9147 10.8527 -12.3247 1
373 1 -8.66717 10.7152 -14.0008 1
182 1 -11.3172 7.94793 -13.1332 1
1205 1 -7.53122 8.48614 -11.6791 1
1269 1 -9.83572 9.55771 -12.2662 1
306 1 -6.04652 11.6589 -13.6639 1
26406 1 -6.63591 9.32835 -13.8755 1
1212 1 -4.78175 9.53344 -11.8847 1
31619 1 39.3622 41.9168 8.92261 1
310 1 -2.71484 11.8357 -13.5444 1
1270 1 -0.0325972 8.77432 -13.0002 1
1332 1 -2.1859 11.0368 -11.4324 1
2114 1 0.0236797 11.572 -11.7518 1
2120 1 2.12438 11.563 -13.2986 1
26365 1 4.80274 9.81409 -10.7459 1
2175 1 3.04282 9.64563 -12.5174 1
2240 1 4.96107 11.6927 -12.5156 1
1337 1 2.79181 11.6583 -10.7555 1
1222 1 9.75401 9.7689 -14.1329 1
2118 1 5.2152 7.50737 -11.8936 1
3018 1 10.0412 10.5491 -11.6183 1
1225 1 5.66388 11.9668 -10.3313 1
460 1 11.9046 10.7312 -13.5451 1
383 1 13.492 12.4954 -13.5256 1
26440 1 13.8399 9.2169 -13.2448 1
26548 1 8.25 11.4388 -10.2148 1
794 1 -8.64537 42.8341 -12.9882 1
1284 1 16.0308 11.3592 -9.63887 1
3090 1 15.0313 10.7376 -11.8942 1
1298 1 17.381 9.91916 -11.149 1
399 1 18.1964 7.77784 -9.4006 1
398 1 19.6336 9.07246 -11.2523 1
26500 1 18.5121 12.1293 -10.6082 1
1345 1 21.7302 10.0804 -10.6645 1
9930 1 14.8133 -13.9589 30.2035 1
26493 1 21.6622 10.1783 -12.7989 1
1188 1 26.245 9.39019 -12.0818 1
26433 1 25.2854 11.1955 -13.446 1
26627 1 24.4049 10.7799 -10.7057 1
54120 1 -13.8 -12.4948 -14.2181 1
26443 1 27.6666 11.1336 -13.4876 1
405 1 31.6326 11.8896 -13.2694 1
25608 1 32.6303 10.28 -11.6279 1
26516 1 34.0034 9.96675 -13.4448 1
300 1 33.8828 8.40776 -10.6188 1
354 1 35.9542 10.6217 -12.4941 1
500 1 -0.829062 24.8729 -13.3644 1
1380 1 37.9796 9.19589 -11.5385 1
54548 1 37.4177 12.0408 -11.6 1
2213 1 37.8645 6.7299 -12.355 1
477 1 37.1599 8.30645 -14.0131 1
539 1 39.7284 11.1415 -12.0658 1
12908 1 -14.4962 -0.893983 41.2623 1
26948 1 -6.88787 37.8537 -14.2319 1
553 1 -12.9002 13.6568 -12.6844 1
38754 1 32.7567 42.3656 32.8246 1
10839 1 28.5201 -13.1731 34.884 1
1266 1 -8.32307 12.2658 -12.3888 1
1327 1 -9.54537 14.0794 -11.2826 1
430 1 -7.55588 15.2933 -12.1035 1
1561 1 -9.52117 15.3012 -13.7551 1
2350 1 -7.53116 17.6744 -12.4695 1
436 1 -4.84058 11.7568 -10.5617 1
3194 1 -0.394376 13.1592 -13.3071 1
491 1 -4.71633 14.8895 -10.9027 1
1276 1 -5.08325 17.117 -11.7104 1
370 1 -6.7369 13.2583 -10.8627 1
1453 1 -0.333134 14.8138 -11.7107 1
1395 1 1.65284 13.4187 -11.4655 1
2234 1 -1.04524 13.1824 -10.0029 1
3081 1 4.50355 14.7667 -13.2506 1
64377 1 -14.3829 7.46512 27.4121 1
376 1 0.853081 17.1011 -11.5952 1
382 1 1.54431 15.4801 -13.6519 1
384 1 7.22541 13.0786 -11.9766 1
1403 1 4.90513 17.026 -10.8057 1
2313 1 7.03285 15.6174 -12.364 1
502 1 9.30041 15.8528 -13.6436 1
508 1 9.24274 13.9733 -11.0786 1
2249 1 9.21416 12.7652 -12.8727 1
2308 1 12.5242 16.7245 -10.8679 1
515 1 16.3068 13.1475 -13.995 1
8100 1 33.3525 40.8053 20.8246 1
2220 1 41.3547 15.6819 -5.31105 1
26680 1 17.0914 15.5514 -11.338 1
1536 1 16.4901 12.651 -11.6317 1
26619 1 19.4778 11.3698 -12.8857 1
26688 1 21.2606 12.3094 -14.2025 1
571 1 19.0906 13.8498 -12.1705 1
517 1 18.6942 14.7439 -9.62806 1
469 1 23.1591 11.916 -12.2201 1
577 1 23.5003 13.2993 -10.1829 1
291 1 34.1075 5.69709 -14.2517 1
24760 1 21.5562 14.462 -12.405 1
4176 1 24.0514 15.7796 -11.6292 1
25540 1 24.8631 13.5043 -12.6331 1
67254 1 -13.9578 24.917 35.5469 1
26508 1 27.3495 11.4328 -11.4445 1
348 1 26.3563 14.865 -10.7933 1
26685 1 28.0366 13.6245 -12.0793 1
420 1 31.3184 14.3032 -12.8916 1
527 1 30.3607 12.576 -11.3736 1
1376 1 29.3478 15.6656 -12.4918 1
55016 1 -13.4576 -9.29031 -5.911 1
26695 1 32.6376 16.8553 -11.9437 1
1314 1 33.9802 12.6186 -12.881 1
535 1 33.1061 14.8403 -13.8851 1
1371 1 35.8172 14.5675 -11.3796 1
2275 1 36.3388 13.3342 -13.6939 1
11688 1 25.6343 41.8009 39.3445 1
54601 1 37.8993 14.8592 -12.5176 1
80644 1 38.5811 13.8183 -9.89413 1
55383 1 42.1876 15.4087 -11.9288 1
54547 1 41.0108 11.9877 -13.6064 1
54421 1 40.0724 14.0517 -11.9619 1
54428 1 41.673 12.0743 -11.1823 1
14570 1 33.6079 -7.69957 42.4985 1
38794 1 19.8572 41.2727 29.4388 1
432 1 -11.9577 19.344 -11.0163 1
54904 1 42.613 -12.8793 -7.69195 1
13325 1 -14.4323 35.2344 33.6961 1
2351 1 -9.77849 20.6654 -10.9368 1
548 1 -10.2147 18.1069 -12.4349 1
2357 1 -3.02378 15.2624 -12.7399 1
26593 1 -5.70532 19.2821 -13.6393 1
2413 1 -6.8439 19.7659 -11.5672 1
55441 1 39.1566 16.5521 -14.3985 1
55194 1 -13.9486 6.31289 -12.6985 1
2295 1 -0.783996 17.1189 -13.6819 1
26727 1 12.1999 15.5699 -14.0773 1
426 1 -3.24497 17.9726 -12.9894 1
2296 1 1.50708 18.6457 -9.67467 1
1001 1 19.3272 -10.484 -13.4296 1
1401 1 2.25234 19.6221 -11.4013 1
1404 1 5.50169 18.9634 -12.8991 1
1457 1 3.4995 17.1951 -12.5947 1
449 1 7.58861 16.1962 -10.0677 1
9929 1 13.4725 -12.9693 34.7953 1
25219 1 -3.01292 -13.8059 -8.18543 1
495 1 7.58444 17.842 -11.8458 1
2367 1 9.36084 19.6458 -12.684 1
4266 1 -13.9788 30.095 5.41263 1
1469 1 9.58667 16.7498 -11.3717 1
1405 1 11.0992 18.6814 -10.6573 1
1529 1 12.3076 14.4697 -12.1536 1
450 1 13.1912 18.5612 -11.8191 1
2376 1 15.4843 19.1529 -11.5258 1
2801 1 27.3089 -14.281 -7.50415 1
26620 1 14.4343 17.337 -13.96 1
1467 1 17.6822 18.374 -12.6843 1
581 1 20.9548 17.0951 -12.648 1
26677 1 16.7994 20.7932 -13.4208 1
25780 1 19.7293 18.9337 -10.7976 1
582 1 21.9475 18.9058 -11.2285 1
578 1 21.2466 19.6759 -9.22789 1
15249 1 -2.30848 42.6807 42.4326 1
25720 1 25.9199 16.8254 -10.1493 1
522 1 25.3076 18.6618 -11.8992 1
26748 1 22.5812 21.1415 -11.376 1
25728 1 27.6202 18.4022 -11.6871 1
466 1 26.9653 15.7449 -12.8546 1
1421 1 26.4224 18.0841 -13.9669 1
25724 1 28.5246 16.1453 -10.2077 1
534 1 31.6125 19.3071 -11.9625 1
1495 1 27.7811 20.7574 -11.9712 1
26576 1 34.9803 18.0126 -10.9851 1
4191 1 34.5443 15.9182 -9.88977 1
12612 1 -6.18585 -12.8339 42.3623 1
1497 1 35.2784 16.0014 -13.2814 1
598 1 37.8752 18.3629 -11.973 1
3230 1 35.4718 19.5744 -12.7433 1
56401 1 36.7494 20.7898 -10.8604 1
2214 1 42.5952 13.4876 -4.33198 1
26457 1 40.031 16.3362 -11.4072 1
55443 1 40.9409 19.0987 -11.8296 1
13924 1 -13.5705 14.4114 37.5553 1
26528 1 -14.3515 20.5399 -10.1616 1
26526 1 -11.2693 21.8912 -9.06248 1
543 1 -12.4051 21.7995 -11.2515 1
1442 1 -12.4921 22.9282 -14.0679 1
1571 1 -8.78875 24.2727 -10.717 1
2346 1 -9.38592 23.1078 -8.44036 1
555 1 -9.15486 22.3714 -12.5975 1
13141 1 -13.613 22.1284 30.4778 1
437 1 -3.66912 20.7297 -14.2839 1
25685 1 -6.65899 21.5986 -13.0042 1
2411 1 -7.50306 21.7809 -10.1177 1
12615 1 -4.3298 -11.6846 41.8017 1
26658 1 0.0340233 21.044 -13.5275 1
4096 1 -0.101171 19.4075 -12.0406 1
2414 1 -2.11676 20.9805 -12.2954 1
3260 1 0.367001 23.2229 -12.0905 1
1402 1 5.97659 21.0414 -13.0715 1
4154 1 2.94623 21.1983 -9.57436 1
1340 1 1.99173 21.6343 -12.7107 1
2417 1 2.09073 24.3176 -10.2007 1
2362 1 6.67152 19.8009 -10.8105 1
2372 1 6.46771 22.9963 -11.4593 1
628 1 8.35042 21.6787 -12.7324 1
12560 1 6.99444 42.637 33.9598 1
5394 1 36.793 41.7544 2.53934 1
2366 1 10.488 22.9555 -12.0826 1
6709 1 42.9532 4.08325 12.1619 1
1475 1 13.6479 20.4989 -10.6941 1
573 1 14.2074 20.5432 -13.1623 1
1594 1 14.5319 23.2338 -13.3003 1
1465 1 11.7358 20.4188 -12.8614 1
26972 1 11.1388 40.5325 -13.5881 1
2436 1 18.3153 22.4375 -12.6985 1
1478 1 19.6783 24.3019 -11.4695 1
2433 1 15.8463 21.8176 -11.4359 1
3389 1 17.7976 20.2592 -10.7843 1
1599 1 19.9577 21.1467 -11.0475 1
969 1 -7.57338 -14.0976 -13.1858 1
40386 1 -8.4137 -14.4445 32.7474 1
26730 1 21.1378 22.7971 -13.1342 1
10983 1 -13.7246 0.857345 35.0557 1
1482 1 24.8304 21.0707 -12.019 1
2383 1 24.8169 21.6942 -9.58328 1
536 1 26.0429 23.0671 -13.3448 1
530 1 30.0875 22.0296 -10.5596 1
26636 1 31.2887 23.7385 -13.4443 1
26799 1 28.2342 24.1348 -12.4889 1
9026 1 14.9926 -13.7415 21.315 1
1609 1 31.8503 21.739 -12.3984 1
1491 1 33.5949 19.9983 -14.0249 1
2507 1 33.7924 23.5045 -12.102 1
11036 1 41.697 -2.50776 38.9354 1
1545 1 33.3537 25.3733 -14.0028 1
595 1 33.7472 20.9557 -11.6969 1
2330 1 34.5174 23.8088 -9.91013 1
2394 1 37.7366 20.6961 -13.5351 1
714 1 36.1014 23.6806 -11.4529 1
9952 1 30.7849 -13.9112 28.9358 1
80761 1 41.6079 23.9509 -10.9877 1
54488 1 42.1583 22.6677 -13.1018 1
1557 1 40.5929 21.4997 -10.9947 1
55444 1 39.2326 23.3112 -12.2043 1
34329 1 -5.28539 41.0889 15.34 1
1445 1 -14.4156 22.9086 -12.1444 1
40418 1 25.756 -14.218 34.8642 1
1449 1 -13.3252 25.8624 -13.1873 1
55559 1 -12.1939 27.1706 -11.2071 1
26890 1 -9.17889 37.0352 -13.9291 1
2409 1 -7.05828 25.5568 -12.2701 1
1511 1 -8.51889 27.1832 -11.2019 1
3309 1 -11.5505 23.7093 -12.2265 1
1502 1 -10.4333 28.3277 -12.4196 1
9953 1 33.5502 -13.8414 22.77 1
26713 1 -7.10967 23.3455 -14.0544 1
614 1 -5.35993 27.2832 -11.9236 1
2527 1 -3.37768 23.1191 -12.0762 1
1509 1 -3.32413 27.3825 -13.7214 1
2467 1 -5.8788 23.3488 -11.6359 1
9479 1 42.362 8.53686 27.8058 1
1462 1 -2.46834 25.5021 -11.8422 1
1460 1 -0.804744 27.1937 -12.4602 1
1458 1 2.50624 24.519 -12.6011 1
2531 1 0.363575 32.8132 -14.0544 1
7622 1 -14.0464 18.5198 13.9936 1
620 1 4.05637 26.4011 -13.2617 1
11354 1 -14.0598 17.848 31.3575 1
25824 1 4.97759 23.8124 -13.7809 1
26726 1 6.46022 25.8442 -13.3738 1
631 1 8.50748 24.3892 -12.5124 1
677 1 8.74502 26.9728 -12.1596 1
4680 1 42.4276 -3.15733 3.3968 1
14356 1 5.28514 41.3873 41.3348 1
625 1 10.1597 24.3093 -14.3105 1
747 1 12.6786 25.3472 -11.1267 1
7150 1 -8.4766 40.835 10.8937 1
2431 1 14.9346 25.2691 -12.0551 1
630 1 12.4539 29.1214 -13.2044 1
1591 1 18.0883 27.4159 -12.2862 1
2557 1 17.6246 24.9862 -12.7328 1
1534 1 19.6583 27.6961 -10.166 1
1604 1 20.0777 24.4444 -13.9888 1
12238 1 42.3512 29.1005 32.7137 1
2509 1 22.6831 25.7641 -12.5672 1
3394 1 22.0661 28.1529 -12.9644 1
25891 1 26.0257 25.1243 -11.2754 1
643 1 26.8094 27.4343 -12.9434 1
3286 1 29.3945 26.4057 -12.9892 1
1762 1 8.48844 42.9154 -9.14938 1
1488 1 29.0611 28.5254 -10.5437 1
2508 1 28.7887 28.9114 -13.0509 1
1486 1 31.1169 28.1269 -11.551 1
26625 1 31.7664 29.4798 -9.44165 1
646 1 31.7479 27.1695 -13.6941 1
1542 1 34.1372 26.0423 -11.804 1
26300 1 -1.62682 -0.582714 -13.7622 1
653 1 37.8684 25.0678 -10.7019 1
655 1 36.4936 26.5079 -12.0597 1
1618 1 37.8314 28.0612 -10.2268 1
55502 1 42.2035 26.8732 -12.6793 1
56343 1 38.7991 25.8561 -12.9933 1
57303 1 40.5142 26.3084 -10.7348 1
80705 1 40.9195 24.9632 -13.3114 1
54717 1 -13.9412 31.8408 -11.1276 1
26467 1 -7.65311 -3.35502 -13.7055 1
26767 1 -11.3207 31.0864 -10.9211 1
2465 1 -12.2621 29.9689 -12.8895 1
665 1 -9.82001 31.8115 -12.6681 1
723 1 -8.31085 31.7127 -10.4814 1
1626 1 -8.60139 29.7582 -11.5873 1
2589 1 -7.36814 29.6215 -14.2408 1
1631 1 -6.27223 29.9203 -10.6533 1
2587 1 -7.00424 31.1006 -12.5477 1
615 1 -4.1893 30.7763 -12.0691 1
1516 1 -2.06044 30.0021 -12.9466 1
25815 1 -2.92348 28.201 -11.3898 1
26840 1 -3.0834 32.2679 -14.2153 1
2475 1 0.552512 29.1717 -11.1478 1
624 1 -4.70493 29.2986 -13.5238 1
1635 1 3.05758 29.4733 -10.0138 1
26779 1 0.0943802 29.1707 -13.721 1
1580 1 1.94504 30.9538 -14.2541 1
572 1 11.6914 22.6389 -14.1788 1
64326 1 42.7148 12.7476 28.7557 1
26661 1 3.88579 29.9489 -12.6601 1
25885 1 7.58748 29.2865 -12.5494 1
1586 1 6.08364 31.5895 -12.4375 1
3326 1 10.9628 31.0975 -13.5698 1
32372 1 9.78944 -13.9018 7.61292 1
1528 1 13.717 28.9411 -10.6233 1
26312 1 5.06965 -1.8061 -13.9118 1
1651 1 11.3982 27.0486 -12.8201 1
2609 1 15.2246 29.5093 -12.5615 1
26669 1 13.9869 27.25 -12.4588 1
2550 1 16.107 27.691 -10.8428 1
1714 1 17.4189 30.2172 -11.6016 1
1657 1 16.2274 27.2035 -13.7344 1
648 1 16.9475 32.5349 -14.0133 1
1711 1 18.0142 30.3268 -14.1901 1
26381 1 23.1989 2.01763 -13.9174 1
1544 1 20.1272 29.0491 -12.5388 1
749 1 19.2638 31.5265 -12.6635 1
25896 1 21.8676 30.7921 -13.3655 1
1546 1 22.7067 28.7086 -10.2975 1
26804 1 20.6651 29.8195 -10.4639 1
698 1 24.5115 29.7 -11.2571 1
35062 1 4.56354 -12.7351 18.1864 1
815 1 20.1989 26.7174 -12.2218 1
8990 1 31.7575 42.2046 16.2493 1
1549 1 24.2438 27.3623 -12.3028 1
1723 1 26.189 31.8062 -11.726 1
26860 1 24.2726 31.7451 -12.9503 1
703 1 27.0511 29.8413 -11.4981 1
26876 1 29.7888 32.7864 -11.022 1
25722 1 26.0124 28.2399 -9.88455 1
707 1 31.6138 30.0644 -12.6995 1
65648 1 41.8292 41.9487 32.9651 1
2506 1 34.0925 29.1526 -10.4413 1
2443 1 36.2044 31.5551 -12.73 1
11338 1 42.5187 11.3904 34.0088 1
1733 1 37.5381 31.8589 -10.9437 1
1615 1 33.8226 31.0785 -12.4896 1
1616 1 35.935 29.0197 -11.6054 1
2400 1 39.838 30.5659 -9.20647 1
777 1 40.212 28.6378 -10.3741 1
10818 1 5.81678 -13.8679 41.5608 1
1605 1 27.0248 25.1245 -14.0739 1
1624 1 -12.1534 32.9786 -12.4702 1
55554 1 -10.8053 33.0687 -10.4256 1
726 1 -12.9081 34.9198 -11.0017 1
784 1 -8.35098 35.7945 -11.9179 1
59654 1 42.725 5.31471 17.1929 1
57298 1 -7.47337 33.6643 -11.928 1
8144 1 17.1856 -13.0832 19.8553 1
678 1 -4.67492 34.1611 -13.6728 1
26428 1 7.89216 8.44649 -14.1974 1
26724 1 -2.86112 36.1613 -12.304 1
793 1 -0.24233 31.7898 -12.1151 1
65045 1 42.3929 1.59324 36.5065 1
31598 1 26.4565 42.1229 8.98346 1
1576 1 -1.54625 34.32 -13.0951 1
26668 1 -3.94133 33.1387 -11.4584 1
34991 1 -3.22776 -13.0628 18.5387 1
26839 1 1.80461 31.2891 -11.605 1
683 1 3.99959 32.4289 -12.9634 1
25944 1 3.56587 34.3159 -11.1699 1
10786 1 27.0224 42.431 31.8876 1
964 1 -14.396 -10.736 -7.96298 1
29651 1 -7.2525 -13.7561 -4.79358 1
682 1 7.80549 33.329 -13.5126 1
26787 1 9.17234 32.5965 -11.9256 1
26843 1 7.57544 35.4535 -11.9873 1
1645 1 12.7135 33.4295 -11.8213 1
1709 1 15.2809 32.504 -12.0267 1
871 1 13.9356 32.8918 -9.93126 1
1652 1 17.4224 34.924 -13.1882 1
2681 1 16.1051 34.1144 -9.6495 1
1637 1 14.4586 35.3031 -12.0832 1
1648 1 17.6059 33.3161 -11.1134 1
2498 1 19.2717 34.0179 -14.2415 1
2502 1 20.4003 33.4882 -11.2241 1
883 1 16.3856 36.5147 -11.9609 1
753 1 18.7296 31.6019 -10.0226 1
28001 1 19.2121 36.244 -12.2797 1
26864 1 21.0931 33.0051 -13.3757 1
1019 1 42.9783 -10.3519 -7.30216 1
27998 1 21.3576 35.5045 -12.9055 1
2562 1 23.0306 33.7476 -11.6282 1
25906 1 27.9596 35.1983 -11.1297 1
66055 1 -14.3635 4.78818 39.3624 1
26800 1 25.3166 33.4651 -13.8314 1
2510 1 31.503 32.4916 -12.973 1
2571 1 30.3414 34.4602 -12.2367 1
27949 1 32.4972 34.5563 -9.75297 1
1730 1 36.1508 36.9093 -11.0792 1
26019 1 34.6911 33.5895 -11.3216 1
38733 1 13.8115 42.8159 34.929 1
1795 1 34.4665 34.336 -13.4533 1
826 1 36.8367 34.3818 -11.9391 1
26940 1 39.2005 30.2722 -11.5949 1
26136 1 22.7229 -13.4475 -14.2347 1
1739 1 41.0042 31.8907 -10.6235 1
55561 1 41.6602 34.7852 -10.1189 1
54721 1 42.0214 34.7177 -12.8515 1
79863 1 40.898 32.5049 -12.8484 1
278 1 23.8725 0.349446 -11.7582 1
55506 1 41.334 29.9793 -12.3962 1
27057 1 38.3584 32.1839 -13.0385 1
729 1 -9.20117 34.4503 -13.3248 1
60071 1 41.4761 26.0927 8.01765 1
782 1 -12.8889 37.2734 -10.0491 1
2582 1 -11.3635 39.0366 -11.2514 1
3428 1 -10.7207 40.8433 -9.67531 1
27008 1 -10.942 36.3121 -11.7647 1
1751 1 -8.55711 38.2677 -11.9156 1
27965 1 -9.98082 37.8345 -9.71237 1
618 1 -5.83072 36.1605 -13.0055 1
1745 1 -7.54519 37.318 -10.312 1
27909 1 -4.74566 37.9684 -11.8403 1
26953 1 0.20264 36.2421 -12.8859 1
2591 1 -1.17259 37.6322 -11.4967 1
2657 1 0.368256 35.8125 -10.2386 1
1758 1 1.27786 38.7985 -12.5751 1
26841 1 2.97985 36.3526 -12.521 1
28821 1 3.15177 40.1788 -11.8455 1
64024 1 42.0641 2.73859 30.1014 1
802 1 9.20523 36.91 -10.6299 1
26903 1 7.50414 38.8552 -11.0742 1
26838 1 6.54806 37.3576 -13.4977 1
26842 1 5.15736 36.5069 -11.1826 1
33229 1 38.0277 -13.9647 9.4943 1
27029 1 11.6292 34.8232 -13.4957 1
811 1 9.64667 36.4073 -13.2317 1
2543 1 11.2876 35.6035 -11.4566 1
53191 1 11.2332 37.9946 -12.3231 1
876 1 11.8723 36.9402 -8.68933 1
37751 1 -2.15369 -12.787 42.4752 1
27923 1 15.7847 38.723 -11.9516 1
2669 1 13.5052 39.6592 -12.9245 1
27931 1 17.2911 39.2693 -14.0174 1
755 1 19.6513 38.3785 -14.0138 1
2554 1 18.2127 38.4785 -11.1744 1
27031 1 20.5522 39.5551 -9.70097 1
27039 1 18.3411 35.4366 -10.5332 1
1784 1 20.6956 38.1164 -11.7079 1
2621 1 22.9231 36.4924 -10.8874 1
2561 1 24.9225 35.4242 -11.7967 1
1659 1 24.3575 37.6264 -12.5335 1
27043 1 26.8919 37.0468 -12.852 1
53153 1 29.1339 35.8712 -13.8233 1
868 1 3.9512 38.0375 -13.7395 1
9083 1 9.43744 -14.181 34.0319 1
2682 1 30.07 36.8207 -11.2923 1
27943 1 30.5868 39.2639 -12.5527 1
27954 1 33.865 37.4163 -12.1883 1
27955 1 34.6403 38.9828 -10.9824 1
66064 1 42.7131 15.4334 31.9042 1
889 1 32.6192 35.4388 -12.4411 1
26994 1 38.4248 36.0419 -10.061 1
840 1 35.5235 36.5074 -13.5956 1
56585 1 37.6834 36.6674 -13.1934 1
81002 1 39.3449 34.8122 -12.4795 1
80943 1 40.7171 36.8151 -12.1344 1
55689 1 39.8595 39.0457 -12.3196 1
12121 1 -14.1023 6.82207 32.5002 1
37835 1 20.0396 42.3802 39.4433 1
66360 1 -13.8459 26.0864 33.5223 1
1412 1 7.62878 10.8435 -13.1364 1
27968 1 -11.8796 40.783 -13.1192 1
8113 1 -7.15728 -14.33 22.5766 1
26588 1 -8.96062 20.051 -13.3094 1
53103 1 -9.51081 40.627 -12.2525 1
80223 1 37.3148 -11.5795 -13.967 1
83703 1 42.1016 39.2524 -0.559679 1
53108 1 -6.66664 39.8609 -11.3982 1