ITEM: TIMESTEP
0
ITEM: NUMBER OF ATOMS
17424
ITEM: BOX BOUNDS pp pp pp
0	1.00000000
0	1.00000000
0	1.00000000
ITEM: ATOMS id x y z 
1	131.98760264	131.99592528	0.50000000	
2	0.01612009	1.00399771	0.50000000	
3	0.01382802	2.00052319	0.50000000	
4	131.99095853	3.01870653	0.50000000	
5	131.98339571	3.99311919	0.50000000	
6	0.00075722	5.01473388	0.50000000	
7	0.00097221	5.99107630	0.50000000	
8	131.99771218	7.01164932	0.50000000	
9	0.00584898	7.99339442	0.50000000	
10	0.00534755	8.99392213	0.50000000	
11	0.00745890	9.98248232	0.50000000	
12	131.99034854	10.99525718	0.50000000	
13	131.99453429	11.99961508	0.50000000	
14	0.00194947	12.99514856	0.50000000	
15	131.99629729	13.98875923	0.50000000	
16	0.01736636	15.00882195	0.50000000	
17	131.98497211	16.00570759	0.50000000	
18	131.99070059	16.99065012	0.50000000	
19	131.99235324	18.00250854	0.50000000	
20	131.99811836	18.98486850	0.50000000	
21	0.01322559	20.01934682	0.50000000	
22	0.01252441	21.01041703	0.50000000	
23	131.99303036	22.00537104	0.50000000	
24	0.00694816	23.00541231	0.50000000	
25	131.98031143	24.00354178	0.50000000	
26	131.99544738	25.00377994	0.50000000	
27	131.99725932	26.00005616	0.50000000	
28	131.98227137	27.00519691	0.50000000	
29	0.00043193	27.98033316	0.50000000	
30	131.99519263	28.98163593	0.50000000	
31	131.99742149	29.99608263	0.50000000	
32	0.02695878	31.01658499	0.50000000	
33	131.98862309	31.98779727	0.50000000	
34	0.00111152	32.99327069	0.50000000	
35	131.98601864	33.99522537	0.50000000	
36	0.00643125	35.01375192	0.50000000	
37	131.98741103	36.00259477	0.50000000	
38	131.98375298	36.99003053	0.50000000	
39	131.99850723	37.98666196	0.50000000	
40	131.98556482	39.00658060	0.50000000	
41	131.99677963	39.99619379	0.50000000	
42	0.00593568	41.01057956	0.50000000	
43	131.98787246	41.99899301	0.50000000	
44	0.00468701	43.00819091	0.50000000	
45	131.99812129	43.99976949	0.50000000	
46	131.99697218	44.99000636	0.50000000	
47	131.98371926	45.99749343	0.50000000	
48	0.00658802	46.99026542	0.50000000	
49	131.98798173	47.99600546	0.50000000	
50	131.99272943	49.00438530	0.50000000	
51	131.99570460	49.97790335	0.50000000	
52	131.98774314	51.00734640	0.50000000	
53	0.00630166	52.00137796	0.50000000	
54	0.00674001	52.99718842	0.50000000	
55	131.98805499	54.01069180	0.50000000	
56	131.98788495	54.97805303	0.50000000	
57	0.00680457	56.01406325	0.50000000	
58	131.99682260	57.00123568	0.50000000	
59	131.99629520	58.00026663	0.50000000	
60	0.00592888	58.99834983	0.50000000	
61	131.99910652	60.02042145	0.50000000	
62	0.00200541	61.00277807	0.50000000	
63	0.01164796	61.99084622	0.50000000	
64	131.99433162	62.99580072	0.50000000	
65	131.99346303	63.99354428	0.50000000	
66	0.00471302	65.01524146	0.50000000	
67	0.00321597	65.99593828	0.50000000	
68	131.98588430	66.98506893	0.50000000	
69	131.98635892	68.01010455	0.50000000	
70	0.00588378	69.00515642	0.50000000	
71	0.00122583	69.98537704	0.50000000	
72	0.01349737	71.01405536	0.50000000	
73	0.01143266	72.00862926	0.50000000	
74	131.99590335	73.00628626	0.50000000	
75	0.01487977	74.01283433	0.50000000	
76	0.01766148	75.01255115	0.50000000	
77	0.00386387	76.00095634	0.50000000	
78	131.99403121	77.02277184	0.50000000	
79	131.99850806	77.99843679	0.50000000	
80	131.99486513	78.98045715	0.50000000	
81	0.00043630	79.98886850	0.50000000	
82	131.99589232	80.98696902	0.50000000	
83	131.99192416	82.01317551	0.50000000	
84	0.01294116	82.98519906	0.50000000	
85	131.99204498	84.00333339	0.50000000	
86	0.00290067	84.99731186	0.50000000	
87	131.98884358	86.00465725	0.50000000	
88	131.99229028	86.97319350	0.50000000	
89	131.99257822	88.00191814	0.50000000	
90	0.00401578	89.00940167	0.50000000	
91	131.98697461	90.00880374	0.50000000	
92	131.99445931	91.00333502	0.50000000	
93	0.01719390	91.99987279	0.50000000	
94	0.00912488	93.01115533	0.50000000	
95	0.00276027	94.00332003	0.50000000	
96	131.97387172	94.99363666	0.50000000	
97	0.00682072	95.99288392	0.50000000	
98	0.00177093	96.99212456	0.50000000	
99	131.99177684	97.99482896	0.50000000	
100	0.00328867	99.00321593	0.50000000	
101	131.98943308	100.00525259	0.50000000	
102	131.98667780	100.99469412	0.50000000	
103	0.00125188	101.99722438	0.50000000	
104	0.00844159	103.00411624	0.50000000	
105	131.99645211	104.00127655	0.50000000	
106	0.00356969	104.99843416	0.50000000	
107	0.00615619	105.99821674	0.50000000	
108	131.99397400	106.99559592	0.50000000	
109	131.99660012	107.98903779	0.50000000	
110	131.99930034	109.00287405	0.50000000	
111	0.00947332	109.99474432	0.50000000	
112	131.98652305	110.99880769	0.50000000	
113	0.00967432	111.99561562	0.50000000	
114	0.01890237	112.99249709	0.50000000	
115	131.99433025	114.01395861	0.50000000	
116	0.00019684	115.00550065	0.50000000	
117	131.98958303	115.99420141	0.50000000	
118	0.00094615	117.00930064	0.50000000	
119	131.98570254	117.99899384	0.50000000	
120	0.00473782	119.00505589	0.50000000	
121	131.99906408	120.00198412	0.50000000	
122	131.99294175	121.00423498	0.50000000	
123	0.00698319	121.99267115	0.50000000	
124	0.00791825	123.00308929	0.50000000	
125	131.99426313	124.02740289	0.50000000	
126	131.99340248	125.00445776	0.50000000	
127	0.00861266	125.99744831	0.50000000	
128	0.00632759	127.00507750	0.50000000	
129	131.99943832	128.00806889	0.50000000	
130	131.99780817	129.00899970	0.50000000	
131	0.00842292	129.98438695	0.50000000	
132	131.99329221	131.01628913	0.50000000	
133	1.02420786	131.99544309	0.50000000	
134	0.99504490	0.99146391	0.50000000	
135	0.99666995	1.98243005	0.50000000	
136	1.01084931	2.99819657	0.50000000	
137	1.00541685	4.00778812	0.50000000	
138	1.00260657	4.98808370	0.50000000	
139	0.99487536	5.98569665	0.50000000	
140	0.99758055	7.02254552	0.50000000	
141	1.01779429	8.00275447	0.50000000	
142	0.99260070	9.00240256	0.50000000	
143	1.00233945	9.99369089	0.50000000	
144	0.98940246	11.00359157	0.50000000	
145	1.00208035	11.98437919	0.50000000	
146	0.99419378	12.98271301	0.50000000	
147	1.00612628	14.00183707	0.50000000	
148	1.00256226	15.01875624	0.50000000	
149	0.99988728	16.00834956	0.50000000	
150	1.00659596	17.01992094	0.50000000	
151	1.00308920	18.00203556	0.50000000	
152	1.00408502	19.00000629	0.50000000	
153	0.99836171	20.01024318	0.50000000	
154	1.00267343	20.98623161	0.50000000	
155	1.00600804	22.02026666	0.50000000	
156	0.99055352	22.99382129	0.50000000	
157	1.00155093	24.01813371	0.50000000	
158	0.98487070	25.01448313	0.50000000	
159	0.99147870	26.00983700	0.50000000	
160	1.00419777	27.02696677	0.50000000	
161	1.00961059	28.00759261	0.50000000	
162	0.99856020	28.98276690	0.50000000	
163	0.98646702	30.00766929	0.50000000	
164	1.00710599	31.00065376	0.50000000	
165	1.01581896	31.98742630	0.50000000	
166	1.00672906	32.99756963	0.50000000	
167	1.01049158	34.01343755	0.50000000	
168	1.00129145	35.00051157	0.50000000	
169	0.99109180	35.99796537	0.50000000	
170	1.00159448	37.01163111	0.50000000	
171	1.01458854	38.00186382	0.50000000	
172	0.98500589	38.99016617	0.50000000	
173	0.99930249	40.00707616	0.50000000	
174	0.98926877	40.98295840	0.50000000	
175	0.99231217	42.00789872	0.50000000	
176	1.01814328	43.00138270	0.50000000	
177	0.99184867	44.00798354	0.50000000	
178	1.01770565	45.01054852	0.50000000	
179	0.98289312	45.99539877	0.50000000	
180	1.00511611	47.00377736	0.50000000	
181	0.99925000	47.99855442	0.50000000	
182	0.99042803	49.00702391	0.50000000	
183	0.98193355	49.99589556	0.50000000	
184	0.98999833	50.99152742	0.50000000	
185	1.01429692	51.99229020	0.50000000	
186	0.99098995	53.00224558	0.50000000	
187	1.00443846	54.02004881	0.50000000	
188	0.99521376	54.97886426	0.50000000	
189	1.00583443	56.01282019	0.50000000	
190	0.99617761	57.00630179	0.50000000	
191	1.01495517	58.00204440	0.50000000	
192	1.00632497	58.99959396	0.50000000	
193	1.00275777	60.00904426	0.50000000	
194	0.99963828	60.99290618	0.50000000	
195	0.99467740	61.99497773	0.50000000	
196	1.00843392	62.99383270	0.50000000	
197	1.01131091	64.00793924	0.50000000	
198	0.99211967	64.99722935	0.50000000	
199	1.00028026	66.01942260	0.50000000	
200	0.98502956	66.99569054	0.50000000	
201	0.99100328	68.00553004	0.50000000	
202	1.00170510	68.99847973	0.50000000	
203	0.98934703	70.00285693	0.50000000	
204	1.01069409	70.99502158	0.50000000	
205	1.00445567	72.01131180	0.50000000	
206	0.99989872	72.98717486	0.50000000	
207	0.99749548	74.00247044	0.50000000	
208	0.98337346	74.99598761	0.50000000	
209	1.00584081	76.00934460	0.50000000	
210	0.99415806	76.99589207	0.50000000	
211	0.98635457	77.99917909	0.50000000	
212	0.98746200	79.00931203	0.50000000	
213	1.00778134	79.99691062	0.50000000	
214	0.99788817	81.00329064	0.50000000	
215	1.01433555	82.00862441	0.50000000	
216	1.02470948	82.99392802	0.50000000	
217	1.00480755	83.97669813	0.50000000	
218	0.99510817	84.99781624	0.50000000	
219	1.00496989	85.99783225	0.50000000	
220	1.01348866	87.00736298	0.50000000	
221	0.99689873	88.00455241	0.50000000	
222	0.99629701	89.01148773	0.50000000	
223	0.98454393	89.98877861	0.50000000	
224	1.00314348	90.99197196	0.50000000	
225	0.98958749	91.99419267	0.50000000	
226	1.00778008	93.00775277	0.50000000	
227	1.01230334	93.99746993	0.50000000	
228	0.99518840	95.00071187	0.50000000	
229	0.98568488	95.97921054	0.50000000	
230	0.99210117	97.00202961	0.50000000	
231	1.03288750	98.01277357	0.50000000	
232	0.99232636	98.99945281	0.50000000	
233	0.99807131	99.99749505	0.50000000	
234	1.01112359	100.99906251	0.50000000	
235	0.98903782	102.01115909	0.50000000	
236	1.01646210	102.99370639	0.50000000	
237	1.02601026	104.01520009	0.50000000	
238	1.00140271	105.01421913	0.50000000	
239	0.99880874	106.00194089	0.50000000	
240	0.98641022	106.98214694	0.50000000	
241	1.00185932	108.01650591	0.50000000	
242	1.00611321	108.98443431	0.50000000	
243	1.00500273	110.01386485	0.50000000	
244	0.98500031	110.99800868	0.50000000	
245	1.00027683	112.00551381	0.50000000	
246	0.98715829	113.00381948	0.50000000	
247	1.00622747	114.00970076	0.50000000	
248	1.01174240	115.00922200	0.50000000	
249	0.99630563	116.02989074	0.50000000	
250	0.99473192	117.00861937	0.50000000	
251	1.00829552	117.99217874	0.50000000	
252	1.00230191	118.99815193	0.50000000	
253	0.99948655	119.98588522	0.50000000	
254	1.00558406	121.00701178	0.50000000	
255	0.98522947	122.00060212	0.50000000	
256	1.01187665	122.99162939	0.50000000	
257	0.99216434	124.01933891	0.50000000	
258	1.00827263	124.99802980	0.50000000	
259	0.99907668	126.01321741	0.50000000	
260	0.99421538	127.00572571	0.50000000	
261	0.99141332	128.00231703	0.50000000	
262	0.98751440	128.99319350	0.50000000	
263	1.02192323	130.01536100	0.50000000	
264	0.99982307	130.99043650	0.50000000	
265	1.99223466	131.99696633	0.50000000	
266	2.00568759	0.99124397	0.50000000	
267	2.00593775	1.99555354	0.50000000	
268	2.00393208	3.00271282	0.50000000	
269	2.00645376	4.00019467	0.50000000	
270	1.99491509	4.98402867	0.50000000	
271	1.97971040	5.99383113	0.50000000	
272	1.99187353	6.98395949	0.50000000	
273	1.99056885	7.99494251	0.50000000	
274	2.00637970	8.99801761	0.50000000	
275	1.98212054	10.00488341	0.50000000	
276	2.00178618	10.98763215	0.50000000	
277	2.00202715	11.99497640	0.50000000	
278	2.00007209	13.00533759	0.50000000	
279	2.01298299	13.99744369	0.50000000	
280	1.98437317	15.00291794	0.50000000	
281	2.00636856	16.01435657	0.50000000	
282	2.00679867	16.98179831	0.50000000	
283	1.98952771	18.00429057	0.50000000	
284	1.99360538	18.99338385	0.50000000	
285	1.99200741	20.00894693	0.50000000	
286	1.98537130	21.00709145	0.50000000	
287	1.99890519	22.01054120	0.50000000	
288	2.00785293	23.00229519	0.50000000	
289	2.00704702	24.00770385	0.50000000	
290	2.00035368	25.01269924	0.50000000	
291	2.00749576	26.00818107	0.50000000	
292	1.98691012	26.99877882	0.50000000	
293	2.01778294	27.98711300	0.50000000	
294	2.01108101	29.02744392	0.50000000	
295	2.00347741	29.99564851	0.50000000	
296	1.99878572	30.99089932	0.50000000	
297	1.99831635	31.99809139	0.50000000	
298	2.01472994	32.98691768	0.50000000	
299	1.99821387	33.99899970	0.50000000	
300	1.99392118	35.00587127	0.50000000	
301	1.99280779	36.00089265	0.50000000	
302	1.99580004	37.00453950	0.50000000	
303	1.98682410	37.99143469	0.50000000	
304	1.99150925	38.98506384	0.50000000	
305	2.00055935	40.00589377	0.50000000	
306	1.99666539	41.01754250	0.50000000	
307	2.00467683	41.97934226	0.50000000	
308	2.00984237	42.99601971	0.50000000	
309	2.00658128	43.99398362	0.50000000	
310	2.00554400	44.99764306	0.50000000	
311	1.98768864	46.01702079	0.50000000	
312	1.99461869	46.99774061	0.50000000	
313	1.99418221	47.99824103	0.50000000	
314	2.00472750	48.99206487	0.50000000	
315	2.00451032	50.01507145	0.50000000	
316	2.00805466	50.99930198	0.50000000	
317	1.99434033	51.99822310	0.50000000	
318	2.00618672	52.98932934	0.50000000	
319	1.99778321	53.97967177	0.50000000	
320	2.00022503	55.00118694	0.50000000	
321	2.01425349	55.99348146	0.50000000	
322	1.98964832	57.00367243	0.50000000	
323	2.00398158	58.00186720	0.50000000	
324	2.00053292	59.00317380	0.50000000	
325	2.00789474	60.01086918	0.50000000	
326	1.99112008	61.01140217	0.50000000	
327	1.99836839	62.00185065	0.50000000	
328	1.99758857	63.01055330	0.50000000	
329	1.99951707	63.99460505	0.50000000	
330	1.99173840	65.00994185	0.50000000	
331	1.98132031	66.01084966	0.50000000	
332	1.99594332	66.98958185	0.50000000	
333	2.00208750	67.99888534	0.50000000	
334	1.98804952	68.99178029	0.50000000	
335	2.00166116	69.99582530	0.50000000	
336	2.00194368	71.00738054	0.50000000	
337	1.99490896	72.00478331	0.50000000	
338	1.99056162	72.98166433	0.50000000	
339	1.99766380	73.99054545	0.50000000	
340	2.01350227	75.00625939	0.50000000	
341	2.00283347	76.02427671	0.50000000	
342	1.99593581	76.98385723	0.50000000	
343	1.98549945	77.99291652	0.50000000	
344	1.99923334	79.00293799	0.50000000	
345	2.00764219	79.99638379	0.50000000	
346	1.98831690	80.99873945	0.50000000	
347	2.00292918	82.01107285	0.50000000	
348	1.99743455	83.01131266	0.50000000	
349	2.01690293	84.00357057	0.50000000	
350	1.99524663	84.99211119	0.50000000	
351	1.99366120	85.99561115	0.50000000	
352	1.99738957	86.99788461	0.50000000	
353	2.00980984	87.98524241	0.50000000	
354	1.98670165	88.99134659	0.50000000	
355	2.00872620	89.98513471	0.50000000	
356	1.99239310	90.99977982	0.50000000	
357	2.00444666	91.99451696	0.50000000	
358	2.00365711	92.99002683	0.50000000	
359	2.00757568	93.99072946	0.50000000	
360	1.98335459	94.99333959	0.50000000	
361	2.03093805	96.00926206	0.50000000	
362	2.00486515	97.01009846	0.50000000	
363	1.99110664	98.01583310	0.50000000	
364	1.97265209	99.00992518	0.50000000	
365	2.01480427	99.99348263	0.50000000	
366	1.98890001	100.97645371	0.50000000	
367	1.99878054	101.99081887	0.50000000	
368	2.01348957	102.98098211	0.50000000	
369	2.00902603	104.00732509	0.50000000	
370	2.00114467	105.00320609	0.50000000	
371	1.98591774	106.00717019	0.50000000	
372	1.99984231	107.01733651	0.50000000	
373	1.99528998	107.99127156	0.50000000	
374	1.99869420	109.00389423	0.50000000	
375	1.99092100	110.01150093	0.50000000	
376	2.00776489	110.98900090	0.50000000	
377	2.00363499	112.01337695	0.50000000	
378	2.00037154	113.01470275	0.50000000	
379	1.98032241	114.00720572	0.50000000	
380	2.01217347	114.99743147	0.50000000	
381	1.98836580	116.00301624	0.50000000	
382	1.97177458	116.99901505	0.50000000	
383	2.00279410	118.00893900	0.50000000	
384	1.99670388	118.99886400	0.50000000	
385	1.99253466	120.00095249	0.50000000	
386	2.01151530	121.00380918	0.50000000	
387	2.00513713	122.00069298	0.50000000	
388	1.98093583	122.98551952	0.50000000	
389	1.99325335	123.97732183	0.50000000	
390	2.00799513	125.00072163	0.50000000	
391	2.00599911	126.03223681	0.50000000	
392	1.98853005	126.98409006	0.50000000	
393	1.99909167	127.98787252	0.50000000	
394	2.01920431	128.99011682	0.50000000	
395	1.99649229	129.99421992	0.50000000	
396	2.00794376	130.99635365	0.50000000	
397	2.98302848	0.00750528	0.50000000	
398	2.99803580	0.97866880	0.50000000	
399	2.99796413	1.96839333	0.50000000	
400	2.99915236	2.99406663	0.50000000	
401	2.98403117	3.99573176	0.50000000	
402	2.99525398	4.99840905	0.50000000	
403	2.99338620	6.01289192	0.50000000	
404	2.98724971	7.00115120	0.50000000	
405	3.01248895	7.99811829	0.50000000	
406	3.00397165	8.99139255	0.50000000	
407	3.00065343	10.00424959	0.50000000	
408	3.01201795	11.00182925	0.50000000	
409	3.00606168	12.00585940	0.50000000	
410	3.00533383	13.00905121	0.50000000	
411	3.01797053	14.00320952	0.50000000	
412	3.00241208	14.99702004	0.50000000	
413	2.98215808	15.98783432	0.50000000	
414	3.00048895	17.01030107	0.50000000	
415	3.00776843	17.99039752	0.50000000	
416	2.99434131	19.01206000	0.50000000	
417	2.98710716	19.98857274	0.50000000	
418	2.98078259	21.00202297	0.50000000	
419	2.98982380	21.99662132	0.50000000	
420	2.98804380	23.00752121	0.50000000	
421	3.01213483	23.99439655	0.50000000	
422	2.98959688	25.00765867	0.50000000	
423	2.99318520	26.00971488	0.50000000	
424	3.00052737	27.00004605	0.50000000	
425	2.99557703	27.99739288	0.50000000	
426	2.98855446	29.00220150	0.50000000	
427	3.01103588	29.99889135	0.50000000	
428	3.01360051	30.99819297	0.50000000	
429	3.00020945	31.98962955	0.50000000	
430	3.00471339	33.02447472	0.50000000	
431	3.00560935	34.01083466	0.50000000	
432	3.00205683	35.01313020	0.50000000	
433	2.99507609	36.00420170	0.50000000	
434	2.99154664	37.01072439	0.50000000	
435	3.00169447	38.00386954	0.50000000	
436	3.02590899	39.01249439	0.50000000	
437	3.00009664	39.97685081	0.50000000	
438	2.99156138	41.02384807	0.50000000	
439	3.00828959	42.01179195	0.50000000	
440	3.01606861	43.00472815	0.50000000	
441	2.98626706	44.02257975	0.50000000	
442	2.98722118	45.00073492	0.50000000	
443	3.00279655	45.99430144	0.50000000	
444	3.00005767	47.00002884	0.50000000	
445	3.01052106	47.98482716	0.50000000	
446	3.01220494	49.00499880	0.50000000	
447	3.00519439	49.99729768	0.50000000	
448	2.99032557	51.01158270	0.50000000	
449	2.98976093	52.00290403	0.50000000	
450	2.98391835	53.00222387	0.50000000	
451	2.98934191	54.00533498	0.50000000	
452	2.98619875	54.98419986	0.50000000	
453	3.00858783	56.00495213	0.50000000	
454	2.99406221	57.00537088	0.50000000	
455	3.00636775	58.00593894	0.50000000	
456	3.00604992	59.00107498	0.50000000	
457	3.00081451	59.99523233	0.50000000	
458	2.99828750	61.00577800	0.50000000	
459	2.99991148	62.00382467	0.50000000	
460	3.01561312	62.99797861	0.50000000	
461	2.99470337	63.99858850	0.50000000	
462	3.00293036	64.98881390	0.50000000	
463	2.99464066	65.99586685	0.50000000	
464	3.00710975	67.00032228	0.50000000	
465	2.99722945	67.99893733	0.50000000	
466	3.01247695	68.98895749	0.50000000	
467	2.99855126	70.00592213	0.50000000	
468	3.01938752	70.99318458	0.50000000	
469	2.99457018	71.98007396	0.50000000	
470	3.00557209	72.99662064	0.50000000	
471	3.00772396	73.99965688	0.50000000	
472	3.01547627	75.00614079	0.50000000	
473	2.99635983	75.99148585	0.50000000	
474	3.00578909	76.99674039	0.50000000	
475	3.00905941	78.01857006	0.50000000	
476	3.01078431	79.00314894	0.50000000	
477	2.99717871	80.00112742	0.50000000	
478	2.98827203	80.99705214	0.50000000	
479	3.00680314	81.99373823	0.50000000	
480	2.99947971	83.00812571	0.50000000	
481	3.02011708	84.01338119	0.50000000	
482	2.99738450	84.98470501	0.50000000	
483	2.99348026	85.98869639	0.50000000	
484	2.99277489	86.99655191	0.50000000	
485	2.99398933	87.99649424	0.50000000	
486	3.00536755	89.01032766	0.50000000	
487	3.01582292	89.99722515	0.50000000	
488	2.99282585	90.99990136	0.50000000	
489	3.00761009	91.99126987	0.50000000	
490	3.00556270	93.00848241	0.50000000	
491	3.00815523	93.99325304	0.50000000	
492	2.99832433	94.99144022	0.50000000	
493	3.00134300	96.00389954	0.50000000	
494	3.00125356	97.01104015	0.50000000	
495	3.01508472	98.01998132	0.50000000	
496	3.00836274	98.98658920	0.50000000	
497	3.01534490	100.00282820	0.50000000	
498	3.00734943	100.97758479	0.50000000	
499	2.98434337	102.00345075	0.50000000	
500	3.00095632	102.99429232	0.50000000	
501	2.99862055	103.99277972	0.50000000	
502	2.99513752	104.99046369	0.50000000	
503	2.99972400	105.98927730	0.50000000	
504	3.01159216	106.98799600	0.50000000	
505	3.00419534	108.00547310	0.50000000	
506	2.99367561	109.00695669	0.50000000	
507	3.00611905	109.98947398	0.50000000	
508	3.00775259	111.00237928	0.50000000	
509	3.00711879	112.01400562	0.50000000	
510	2.99494468	113.01162421	0.50000000	
511	3.00122384	114.00188607	0.50000000	
512	2.99100669	114.98670863	0.50000000	
513	2.98379478	116.00412498	0.50000000	
514	3.01106389	117.00749255	0.50000000	
515	3.00329945	118.00204176	0.50000000	
516	3.01175564	119.00268235	0.50000000	
517	3.01441265	120.00107424	0.50000000	
518	2.99303588	120.98642544	0.50000000	
519	3.01180734	121.99104345	0.50000000	
520	3.00745183	123.00141696	0.50000000	
521	2.99693199	124.01665474	0.50000000	
522	3.00644169	124.99422446	0.50000000	
523	2.99347900	126.00080709	0.50000000	
524	3.01208793	126.98956889	0.50000000	
525	2.99906052	128.01065088	0.50000000	
526	2.99630083	129.00167603	0.50000000	
527	2.99771260	129.99941117	0.50000000	
528	2.99265416	131.00428306	0.50000000	
529	3.99469237	131.98670949	0.50000000	
530	3.98339156	1.00278183	0.50000000	
531	4.01309962	1.99224379	0.50000000	
532	4.01738783	2.99694100	0.50000000	
533	3.99673810	3.99513990	0.50000000	
534	3.98831061	4.99695746	0.50000000	
535	4.00937410	6.00754201	0.50000000	
536	3.99671565	7.01027683	0.50000000	
537	3.99341446	8.01212681	0.50000000	
538	3.99330002	9.00498090	0.50000000	
539	4.00572181	9.99263981	0.50000000	
540	3.98084955	11.01369886	0.50000000	
541	3.98472378	11.98522992	0.50000000	
542	4.00166846	12.99279695	0.50000000	
543	4.00268292	14.00890960	0.50000000	
544	4.01012388	14.98487247	0.50000000	
545	4.00903017	16.01708214	0.50000000	
546	3.99897356	17.00210594	0.50000000	
547	3.98671307	17.99257579	0.50000000	
548	3.99968641	19.00914915	0.50000000	
549	3.99541659	20.00427345	0.50000000	
550	4.00196308	20.98687597	0.50000000	
551	4.00573504	22.01434059	0.50000000	
552	4.00779022	23.00658339	0.50000000	
553	3.99666222	24.00590118	0.50000000	
554	4.00122280	25.01591796	0.50000000	
555	3.99598392	26.00367409	0.50000000	
556	3.98315044	26.99897504	0.50000000	
557	3.97863431	27.98689241	0.50000000	
558	4.00576635	29.00193037	0.50000000	
559	3.98241637	29.99007605	0.50000000	
560	3.99502490	30.99467749	0.50000000	
561	4.00202956	31.97771639	0.50000000	
562	4.00823006	33.01423681	0.50000000	
563	3.98933254	34.00399577	0.50000000	
564	3.98572317	35.02861251	0.50000000	
565	3.98938205	36.01702458	0.50000000	
566	3.99285843	36.99756258	0.50000000	
567	3.99795654	38.00462926	0.50000000	
568	4.00199820	38.99692691	0.50000000	
569	3.99840843	40.00896265	0.50000000	
570	3.99281790	40.98568038	0.50000000	
571	4.01343996	42.00491081	0.50000000	
572	3.99834734	42.99548917	0.50000000	
573	4.00647949	44.00258746	0.50000000	
574	3.98984852	45.00771501	0.50000000	
575	3.97915588	46.00603224	0.50000000	
576	4.02157785	46.98478822	0.50000000	
577	4.00466275	48.01069018	0.50000000	
578	3.99810985	48.99590076	0.50000000	
579	4.00552064	50.00978294	0.50000000	
580	3.99746907	50.99712911	0.50000000	
581	3.99487516	52.00871487	0.50000000	
582	4.01218466	53.01787002	0.50000000	
583	3.97755792	54.00320602	0.50000000	
584	4.00154068	55.02054573	0.50000000	
585	4.00322655	56.00620939	0.50000000	
586	3.99512438	56.99587389	0.50000000	
587	4.00035106	58.00324706	0.50000000	
588	3.99913483	59.01616804	0.50000000	
589	3.99730278	59.99489383	0.50000000	
590	4.00191064	61.00955222	0.50000000	
591	4.00391847	61.98030175	0.50000000	
592	4.00305357	63.00404145	0.50000000	
593	3.99594513	63.98984472	0.50000000	
594	4.00811967	64.99586846	0.50000000	
595	4.00588441	65.99181894	0.50000000	
596	3.99198896	67.00497121	0.50000000	
597	4.00530482	67.99448802	0.50000000	
598	4.00530674	69.00087558	0.50000000	
599	3.99568725	70.00463660	0.50000000	
600	4.00666268	70.99709954	0.50000000	
601	3.99819749	71.99514590	0.50000000	
602	4.01477243	73.01515682	0.50000000	
603	4.00010965	74.00245945	0.50000000	
604	4.01359230	75.01196588	0.50000000	
605	3.99692237	75.99005090	0.50000000	
606	4.00025682	76.99812761	0.50000000	
607	4.01139407	77.99175285	0.50000000	
608	3.99647322	79.01395796	0.50000000	
609	3.98665448	79.99138460	0.50000000	
610	4.01223958	81.00586134	0.50000000	
611	4.01600153	82.00854545	0.50000000	
612	3.98241753	83.00638410	0.50000000	
613	4.00504069	84.00927918	0.50000000	
614	3.99082588	84.99424899	0.50000000	
615	4.00130286	86.00077927	0.50000000	
616	4.00523177	87.00466756	0.50000000	
617	3.99055454	88.00810694	0.50000000	
618	4.00609959	88.99016020	0.50000000	
619	4.00910540	90.01708810	0.50000000	
620	3.98782526	90.99524079	0.50000000	
621	3.99738501	92.01442994	0.50000000	
622	4.00658210	93.02158634	0.50000000	
623	4.01290858	93.99814068	0.50000000	
624	3.99270890	95.01359350	0.50000000	
625	4.00099441	95.99983081	0.50000000	
626	4.00124760	96.98996263	0.50000000	
627	3.99552077	97.98110754	0.50000000	
628	4.00612612	98.99956958	0.50000000	
629	4.00401269	100.00485053	0.50000000	
630	4.00203893	101.00417392	0.50000000	
631	3.99867196	102.01495336	0.50000000	
632	4.01147076	102.99842304	0.50000000	
633	4.01212150	104.00499668	0.50000000	
634	4.00274067	104.98727980	0.50000000	
635	3.98635983	105.97440499	0.50000000	
636	4.00263864	106.99924570	0.50000000	
637	3.97833261	108.01377873	0.50000000	
638	4.00489508	109.00115985	0.50000000	
639	4.00795613	110.01510107	0.50000000	
640	4.00668312	111.00129726	0.50000000	
641	4.01028325	111.99200997	0.50000000	
642	3.98962427	113.01025037	0.50000000	
643	4.01413660	113.99943715	0.50000000	
644	4.01305769	114.98422863	0.50000000	
645	4.00277135	116.00197580	0.50000000	
646	3.98587070	117.00304198	0.50000000	
647	4.00138826	118.00788212	0.50000000	
648	4.00429265	119.01267505	0.50000000	
649	4.00622320	120.00497279	0.50000000	
650	3.99715781	121.01467990	0.50000000	
651	4.01202053	121.99466654	0.50000000	
652	4.00890729	123.02268370	0.50000000	
653	3.99907566	123.99387450	0.50000000	
654	3.99720146	125.00205214	0.50000000	
655	3.98644904	126.01532312	0.50000000	
656	3.98651532	126.99958149	0.50000000	
657	4.01060608	128.00054038	0.50000000	
658	3.99943583	128.99461881	0.50000000	
659	4.01754336	129.99822125	0.50000000	
660	3.99662092	131.00442071	0.50000000	
661	5.00284470	131.99121901	0.50000000	
662	4.99343474	1.01536727	0.50000000	
663	4.98830045	1.99043585	0.50000000	
664	5.00586504	2.98115179	0.50000000	
665	5.00231021	3.97963425	0.50000000	
666	5.01217109	5.00187206	0.50000000	
667	5.00428658	5.98820592	0.50000000	
668	5.01007731	7.00265104	0.50000000	
669	4.98951968	8.01356350	0.50000000	
670	5.00431962	8.99074538	0.50000000	
671	5.00775880	9.99284921	0.50000000	
672	4.99052908	10.99220855	0.50000000	
673	4.99173153	12.00299148	0.50000000	
674	4.98949399	12.99190482	0.50000000	
675	5.01571066	14.00691445	0.50000000	
676	4.97892181	14.98885962	0.50000000	
677	4.99631632	16.00808929	0.50000000	
678	4.99684349	17.01009475	0.50000000	
679	4.99540547	18.00406036	0.50000000	
680	5.02311308	19.01474597	0.50000000	
681	5.00053624	19.99330111	0.50000000	
682	4.99731238	21.00873666	0.50000000	
683	4.99946840	21.99747570	0.50000000	
684	5.01926375	22.99733104	0.50000000	
685	5.01293941	23.97986202	0.50000000	
686	5.00958902	25.00477153	0.50000000	
687	5.00216720	25.97997825	0.50000000	
688	4.98408000	26.98704206	0.50000000	
689	4.99293594	28.00818164	0.50000000	
690	5.00186166	28.99069948	0.50000000	
691	4.99743167	30.00589379	0.50000000	
692	4.99526829	31.01871223	0.50000000	
693	4.98780332	31.99523837	0.50000000	
694	5.00219301	33.00453583	0.50000000	
695	5.00362712	34.00345992	0.50000000	
696	4.98837039	34.99278210	0.50000000	
697	5.01018933	35.98661885	0.50000000	
698	5.01823234	37.01269229	0.50000000	
699	4.99744082	38.02193919	0.50000000	
700	4.98609647	38.98716522	0.50000000	
701	5.00130099	39.99311333	0.50000000	
702	4.99687924	40.99337361	0.50000000	
703	5.00769942	41.99384517	0.50000000	
704	4.99224559	42.98874233	0.50000000	
705	5.00234165	43.99148258	0.50000000	
706	4.99542329	45.00260836	0.50000000	
707	5.01521524	45.99835667	0.50000000	
708	5.00521316	46.98014547	0.50000000	
709	5.00071588	47.99562261	0.50000000	
710	4.99470806	48.98391710	0.50000000	
711	4.99064565	49.99810999	0.50000000	
712	5.00733742	50.99963148	0.50000000	
713	4.99513184	52.02177526	0.50000000	
714	5.00933204	52.99457249	0.50000000	
715	4.99163141	54.00327011	0.50000000	
716	4.98290892	54.99619915	0.50000000	
717	5.01843644	55.99454219	0.50000000	
718	4.99729924	57.02496395	0.50000000	
719	5.01241801	58.00127128	0.50000000	
720	5.00832376	58.97882102	0.50000000	
721	5.01654538	60.00166836	0.50000000	
722	5.00063084	61.01319571	0.50000000	
723	5.01567696	61.99949763	0.50000000	
724	5.00175639	63.00988260	0.50000000	
725	4.99070569	63.99681080	0.50000000	
726	4.98889136	65.00600791	0.50000000	
727	4.98977886	66.01304848	0.50000000	
728	5.00989783	66.98877681	0.50000000	
729	5.02290880	67.98335197	0.50000000	
730	4.99840537	69.01855473	0.50000000	
731	5.01144183	70.01415908	0.50000000	
732	5.02083382	71.01290219	0.50000000	
733	4.99377483	71.99179986	0.50000000	
734	5.01083448	73.00695905	0.50000000	
735	5.00344402	74.00183455	0.50000000	
736	4.99654338	74.99524250	0.50000000	
737	4.99458942	76.00932863	0.50000000	
738	5.01401587	77.01543547	0.50000000	
739	5.01964217	77.99685442	0.50000000	
740	5.00459255	79.00540656	0.50000000	
741	4.98001045	79.99663194	0.50000000	
742	4.99812225	80.99412941	0.50000000	
743	4.99393077	82.01599006	0.50000000	
744	5.00001046	82.99243769	0.50000000	
745	5.00040650	83.99231480	0.50000000	
746	4.99102953	85.00949385	0.50000000	
747	5.02341918	86.00324057	0.50000000	
748	4.99203244	87.00807406	0.50000000	
749	5.00996214	87.99589456	0.50000000	
750	5.00185263	88.99715102	0.50000000	
751	4.99318718	90.00068574	0.50000000	
752	4.99416021	91.00091947	0.50000000	
753	5.01259969	91.99065685	0.50000000	
754	5.00325773	93.00568482	0.50000000	
755	5.00125050	94.00387378	0.50000000	
756	4.99091471	94.99764831	0.50000000	
757	4.99368171	95.99194377	0.50000000	
758	4.98573423	96.99471381	0.50000000	
759	5.00491359	98.00453270	0.50000000	
760	5.01412430	98.99639964	0.50000000	
761	5.00675242	100.00180136	0.50000000	
762	5.02704295	101.01943808	0.50000000	